/*--------------------------------*- C++ -*----------------------------------*\
| =========                 |                                                 |
| \\      /  F ield         | OpenFOAM: The Open Source CFD Toolbox           |
|  \\    /   O peration     | Version:  2106                                  |
|   \\  /    A nd           | Website:  www.openfoam.com                      |
|    \\/     M anipulation  |                                                 |
\*---------------------------------------------------------------------------*/
FoamFile
{
    version     2.0;
    format      ascii;
    arch        "LSB;label=32;scalar=64";
    class       volScalarField;
    location    "30";
    object      p;
}
// * * * * * * * * * * * * * * * * * * * * * * * * * * * * * * * * * * * * * //

dimensions      [ 0 2 -2 0 0 0 0 ];

internalField   nonuniform List<scalar> 
300000
(
0.0002714179
0.0005069252
0.0007064254
0.0007815695
0.0008885101
0.001030741
0.001172493
0.001311566
0.001456242
0.001609851
0.001765379
0.001922677
0.002084192
0.002253565
0.002428733
0.002610834
0.002796433
0.002988086
0.003185506
0.003392485
0.003612329
0.003858005
0.004127941
0.004412647
0.004698214
0.00501708
0.005400507
0.005823451
0.006294078
0.006821923
0.007332507
0.007914834
0.008650421
0.009449663
0.01035253
0.01121473
0.01211739
0.01328133
0.01427635
0.01530704
0.01622626
0.0173115
0.01827456
0.01933999
0.01983345
0.02044666
0.02079402
0.02119373
0.02107596
0.02039129
0.0204838
0.01947641
0.01874026
0.01773737
0.0167309
0.01568742
0.01493145
0.014222
0.01448498
0.01332044
0.01327434
0.01284064
0.01291064
0.01184083
0.01164091
0.01091472
0.01062757
0.009936973
0.01069942
0.008535655
0.007687091
0.006311393
0.005380707
0.004937671
0.004635558
0.005742014
0.005206861
0.005507746
0.004720387
0.00618169
0.005380436
0.003913257
0.003779585
0.003508504
0.003664639
0.003259486
0.002737522
0.00200008
1.463786e-05
-0.001830214
-0.002087918
-0.001830193
-0.002447075
-0.003320822
-0.004243037
-0.004846815
-0.005528884
-0.004436349
-0.002673172
-0.001034358
2.795085e-05
0.001085219
0.001903231
0.002203838
0.001972114
0.0014837
0.0009031949
0.0005947906
0.0004765728
0.0001179956
-0.000204029
-0.0001523763
-0.0003100618
-0.0007621042
-0.001537813
-0.002460218
-0.003008743
-0.002375735
-0.001462849
-0.0004198208
0.0006057262
0.001460884
0.001996506
0.001923717
0.0006770457
-0.001003963
-0.001844149
-0.001807575
-0.001384833
-0.0009763425
-0.0008919112
-0.001028178
-0.001231457
-0.001385526
-0.001475749
-0.001527729
-0.001559692
-0.001580876
-0.00159991
-0.001612399
-0.001618547
-0.001624271
-0.001625175
-0.001613545
-0.001584994
-0.001533427
-0.001448881
-0.001318384
-0.001129269
-0.0008859633
0.000496149
0.0006306316
0.000699202
0.0007129771
0.0008384287
0.000988531
0.001069307
0.001110081
0.001163064
0.001232009
0.001296913
0.001349491
0.00139787
0.00144702
0.001494282
0.001534065
0.001564941
0.001587835
0.001608976
0.001630296
0.001655066
0.001683238
0.001713229
0.001743995
0.001779095
0.001826163
0.001882647
0.001939226
0.001994479
0.002050475
0.002103613
0.00218499
0.002304074
0.002427798
0.002554872
0.002673509
0.002818092
0.003007294
0.003168969
0.003361784
0.00358867
0.00389028
0.004228778
0.004650683
0.005083217
0.005625131
0.006187047
0.006818975
0.007516515
0.008286077
0.009274328
0.01006844
0.01079689
0.01128463
0.01169045
0.01211553
0.01253981
0.01279547
0.01292009
0.01268077
0.01228781
0.01161881
0.01095911
0.01016628
0.009511404
0.008978789
0.008779621
0.008886567
0.009035445
0.007117636
0.005928221
0.005300709
0.004585111
0.003861067
0.003541015
0.003588302
0.003676078
0.004347538
0.005570687
0.006960171
0.005671299
0.005016134
0.00462013
0.003775888
0.003387641
0.002164264
0.0009358623
-8.220475e-05
-0.001202261
-0.001105947
-0.0007900178
-0.001080748
-0.002203262
-0.002953373
-0.002885902
-0.00239782
-0.001565021
-0.001143951
-0.0002746127
0.001161006
0.002348833
0.003036752
0.002895465
0.002146604
0.001581144
0.001367954
0.001083498
0.001009686
0.0008749843
0.0004855475
0.0001709246
0.000116053
-0.0004070217
-0.001641077
-0.00271169
-0.003071142
-0.002768135
-0.002014734
-0.0005745513
0.0009304726
0.002063199
0.002814699
0.00296842
0.002413497
0.001013798
-0.0005053328
-0.001316476
-0.001456519
-0.0012402
-0.0009599051
-0.0008062868
-0.000802218
-0.0008761692
-0.0009544283
-0.001006435
-0.001031674
-0.001039659
-0.001036624
-0.001027735
-0.00101473
-0.000995527
-0.0009714767
-0.0009387
-0.0008928586
-0.000834439
-0.0007563511
-0.0006402866
-0.0004605268
-0.0001858623
0.0002236952
0.0007172464
0.000924122
0.00109571
0.001199414
0.001384437
0.0015769
0.001704111
0.001810069
0.001946101
0.002104519
0.002255974
0.002394451
0.002532774
0.002680588
0.00283717
0.002992667
0.003142984
0.00328997
0.003439229
0.003595176
0.003759554
0.003934042
0.004121559
0.00432542
0.004546363
0.004781592
0.005033029
0.005305283
0.005599683
0.005918253
0.006259856
0.006625566
0.007024651
0.007460519
0.007926208
0.008414932
0.008918459
0.009442788
0.009981777
0.01052298
0.0110792
0.01165817
0.01226869
0.01291057
0.01357802
0.01427315
0.01498803
0.01570654
0.01642911
0.01713985
0.01786507
0.01849334
0.01894825
0.01915455
0.01920426
0.01922212
0.01918223
0.01894543
0.01845545
0.01772677
0.01684241
0.0157702
0.01471146
0.01362805
0.01259186
0.01171363
0.01117321
0.01106767
0.01122678
0.009432195
0.008166386
0.006914032
0.005821046
0.005057701
0.004591258
0.004432572
0.004899312
0.005766258
0.005745223
0.007475503
0.006920418
0.005718894
0.005402149
0.003976423
0.003022377
0.00223915
0.000639092
-0.0001135522
-0.0009858537
-0.001135314
-0.001241458
-0.001488259
-0.001455771
-0.001879984
-0.002303506
-0.002723131
-0.002212098
-0.001074037
0.0002911169
0.001392661
0.00215649
0.002251406
0.001871017
0.001524453
0.001449482
0.001099426
0.0007513769
0.0007711013
0.0006448897
0.0001927409
-0.0006012422
-0.0009191481
-0.001210565
-0.002761123
-0.004057294
-0.003416151
-0.002541155
-0.002011151
-0.000401806
0.001194845
0.00230436
0.002824664
0.002753248
0.002013767
0.0007141259
-0.0005729114
-0.001347907
-0.001611403
-0.001544038
-0.001360536
-0.001220962
-0.001174365
-0.001192954
-0.001231134
-0.001263676
-0.001284286
-0.001296243
-0.001305218
-0.001312589
-0.001318838
-0.001323113
-0.001320456
-0.001305981
-0.001273264
-0.001219601
-0.001140561
-0.001020043
-0.0008294806
-0.0005278917
-5.150692e-05
0.0009153641
0.001143262
0.001291255
0.001348067
0.001500713
0.001689637
0.001832237
0.001948063
0.002072735
0.002199578
0.002307184
0.002396467
0.002485334
0.002581693
0.002682945
0.002778727
0.00285853
0.002923322
0.002981332
0.003039458
0.0031041
0.003177441
0.003257872
0.003346499
0.003446548
0.003562255
0.003693795
0.003842722
0.004012165
0.004203491
0.004418065
0.004659134
0.004938302
0.005261535
0.005628844
0.006042591
0.006502918
0.007017405
0.007588719
0.008218195
0.008918488
0.009703877
0.01057129
0.01151029
0.01251518
0.01358791
0.01471702
0.01586637
0.01700814
0.01808296
0.01905849
0.01994429
0.02067747
0.02113939
0.0213401
0.0214008
0.02135278
0.0210815
0.02046698
0.01959166
0.01857197
0.01739839
0.01623263
0.0150831
0.01396934
0.01298563
0.01228097
0.0118658
0.01165231
0.01046494
0.009087065
0.007706643
0.006401489
0.005637777
0.005112954
0.004927266
0.005401607
0.006202001
0.005870736
0.007536539
0.007371581
0.006001192
0.005859034
0.004234919
0.003085176
0.002187851
0.0005794039
1.782385e-05
-0.0004146122
-0.0006039418
-0.0007801759
-0.001239114
-0.001474252
-0.001776326
-0.001738327
-0.001937671
-0.001570748
-0.0007086568
0.0004219572
0.001676234
0.002339725
0.002035303
0.00147855
0.00101258
0.0007692905
0.0004732728
0.0004401437
0.0006726533
0.000589419
0.0001018591
-0.001422718
-0.002399894
-0.002474762
-0.003231303
-0.004342518
-0.004256425
-0.0036296
-0.002410055
-5.443861e-05
0.001642244
0.00247141
0.002821314
0.002649703
0.001896286
0.0007324195
-0.0003717648
-0.001089217
-0.001410307
-0.001446349
-0.001341279
-0.001221427
-0.001147391
-0.001118455
-0.001112838
-0.001112677
-0.001111613
-0.00111109
-0.001112734
-0.001118794
-0.001128027
-0.00113758
-0.001145096
-0.001142341
-0.001124371
-0.00108677
-0.001017409
-0.0009015543
-0.0007132733
-0.0004082083
9.054007e-05
0.001109867
0.001378752
0.001571653
0.001684246
0.001902659
0.002152794
0.002345893
0.002500335
0.00265585
0.002814228
0.002961028
0.003096078
0.003236073
0.003387227
0.00354168
0.003691715
0.003828355
0.0039483
0.004061128
0.004177568
0.004302311
0.004440399
0.004591247
0.004748824
0.004915276
0.005098754
0.00530114
0.005520088
0.005756336
0.00601528
0.006298894
0.006606029
0.006940265
0.007309188
0.007716565
0.008165382
0.008657397
0.009196941
0.009786926
0.01043113
0.01113825
0.01192259
0.01279063
0.01373111
0.01473197
0.01579239
0.01691758
0.01808115
0.01925479
0.02039826
0.02139029
0.02217515
0.0228556
0.02334429
0.02354469
0.02352364
0.02335987
0.02303277
0.02233674
0.02126725
0.02013202
0.0188869
0.01760278
0.01636786
0.01518181
0.01406133
0.01310338
0.0122927
0.01176686
0.01119665
0.0102081
0.008408585
0.006917836
0.006208772
0.005696002
0.005414765
0.005843942
0.006775517
0.00653935
0.007600067
0.007536315
0.006239574
0.00560978
0.0046658
0.00313528
0.002038503
0.0004169274
0.0001680582
-0.0001102587
-0.000530919
-0.0008149725
-0.001228973
-0.001270277
-0.001501503
-0.00160474
-0.001575209
-0.0012574
-0.0004656493
0.000776984
0.002216494
0.002677402
0.002184891
0.001759024
0.001164842
0.000572405
0.0003269634
0.0003145207
0.0002456058
-0.000461311
-0.001980178
-0.003328113
-0.003713502
-0.00356881
-0.004109216
-0.004949266
-0.004283409
-0.003578504
-0.002031458
0.0003501102
0.001703281
0.002352576
0.002533054
0.002252882
0.001520334
0.00053504
-0.0003771063
-0.001007892
-0.001339473
-0.001437483
-0.001391027
-0.001294651
-0.001208037
-0.001146939
-0.00110606
-0.001076561
-0.001055746
-0.001043721
-0.001042137
-0.001052413
-0.001071458
-0.001097004
-0.00112358
-0.001144223
-0.001154688
-0.001142494
-0.001096978
-0.001002013
-0.0008241777
-0.0005158816
2.7908e-05
0.001298671
0.001603157
0.001826883
0.001952074
0.002165802
0.002401457
0.002583249
0.002734412
0.002891393
0.003051895
0.003199199
0.003330004
0.003457924
0.003592937
0.003726081
0.003848103
0.003955841
0.004045794
0.00412208
0.004198634
0.004282421
0.00437613
0.00448497
0.004604469
0.004727999
0.004863683
0.005021617
0.005201905
0.005404478
0.005631098
0.005890146
0.006185618
0.006516207
0.006884005
0.007298143
0.007767748
0.008297313
0.008888615
0.00954558
0.01027429
0.01107909
0.01196496
0.01294661
0.01401371
0.0151446
0.0163245
0.01755618
0.01882939
0.02010382
0.02135032
0.02250439
0.02340488
0.02404129
0.02456096
0.02484551
0.02483873
0.02463853
0.02432601
0.02365839
0.02251424
0.02132734
0.02003505
0.01871533
0.01737078
0.01612918
0.01494791
0.01386359
0.01288382
0.01210654
0.01103712
0.01025746
0.00923101
0.007927586
0.006414649
0.006244758
0.005715021
0.00600554
0.007065389
0.007502191
0.007158162
0.007514823
0.006425863
0.006168546
0.00468464
0.003125254
0.002151415
0.0007285223
5.731188e-05
-0.0001909198
-0.0002501631
-0.0005073746
-0.0008313599
-0.0009330999
-0.001225876
-0.001477126
-0.001017428
-0.0004203072
0.0002967114
0.001285948
0.00221137
0.002349199
0.001783588
0.001543574
0.0009626246
0.0003107699
0.0001782883
5.783952e-05
-0.0002660979
-0.001047718
-0.002259173
-0.00355694
-0.005346286
-0.005604704
-0.004944523
-0.004608657
-0.003219042
-0.002330271
-0.001306586
0.0003868782
0.001542018
0.002099289
0.002181589
0.001837958
0.001164549
0.000351022
-0.0003853408
-0.0009165016
-0.001225063
-0.001347267
-0.001334012
-0.001253715
-0.001158772
-0.001072716
-0.001000438
-0.0009416303
-0.0008969033
-0.0008675446
-0.0008560997
-0.0008617046
-0.000882685
-0.0009159719
-0.0009550334
-0.0009949717
-0.001027406
-0.001042614
-0.001030781
-0.0009690712
-0.0008242179
-0.0005332845
5.350899e-05
0.001484365
0.001824686
0.002085623
0.002240758
0.002482496
0.002751594
0.002976474
0.003175346
0.003376299
0.003573398
0.003751157
0.003909505
0.004061774
0.004220708
0.004380777
0.004527983
0.004659757
0.004777393
0.004880873
0.004979635
0.005086062
0.005201444
0.005328849
0.005472497
0.005623419
0.005777811
0.005948652
0.006143789
0.006362848
0.006606287
0.006874625
0.007178716
0.007522292
0.007901436
0.008316832
0.00877951
0.009302966
0.009891959
0.01054606
0.01126788
0.01207009
0.01295485
0.0139221
0.01498719
0.01612532
0.01730957
0.01853169
0.01979929
0.02107855
0.02232056
0.02350048
0.02450167
0.0251765
0.02561556
0.02591287
0.02594273
0.02571363
0.02538819
0.0247442
0.02362668
0.02242841
0.02102301
0.01971587
0.018265
0.01694112
0.01570553
0.01454761
0.0135194
0.01293224
0.01154873
0.01031765
0.009849156
0.008771165
0.007141439
0.006389163
0.005904451
0.006282365
0.007833748
0.00705996
0.006639193
0.00792616
0.007298401
0.006656618
0.005110641
0.00307332
0.001510302
0.0006075841
-0.0002435172
-0.0007823591
0.000128103
0.0001324888
-0.0003211015
-0.0003375091
-0.0004002432
-0.0006470897
-6.77176e-05
0.0006255956
0.001164301
0.001697011
0.002081217
0.002097642
0.001495263
0.0008025142
0.0002037817
-0.0003169116
-0.0004745436
-0.0006746474
-0.0008924959
-0.001348049
-0.00242545
-0.003571448
-0.004298087
-0.004452098
-0.004326233
-0.003945363
-0.002587067
-0.00160035
-0.0007549032
0.0004907046
0.001379688
0.001786333
0.001779373
0.001410382
0.0008145564
0.0001485422
-0.0004417357
-0.0008783411
-0.0011487
-0.001271319
-0.001273506
-0.001203082
-0.001103576
-0.001000368
-0.0009047716
-0.000822678
-0.0007575568
-0.0007132121
-0.0006917989
-0.0006930596
-0.0007153881
-0.0007536481
-0.0008031011
-0.0008575031
-0.0009088101
-0.0009497193
-0.0009660698
-0.000939206
-0.0008343623
-0.000577414
3.066925e-05
0.001667419
0.0020425
0.002340777
0.002525292
0.002788109
0.0030732
0.003312182
0.003521603
0.003727033
0.003923651
0.004099265
0.00425666
0.004407826
0.00456383
0.004722042
0.004865916
0.004988485
0.00509528
0.005189158
0.005273901
0.005362205
0.005460929
0.005568324
0.005691185
0.005830886
0.005975326
0.006128499
0.006306161
0.006512135
0.006749387
0.007016551
0.007315276
0.007660016
0.008052131
0.008487102
0.008965907
0.009502851
0.01011245
0.01079921
0.01155779
0.01239073
0.01331437
0.0143244
0.01541439
0.01659577
0.01782876
0.01908527
0.02036471
0.02167165
0.0229469
0.02414242
0.0252184
0.0260163
0.02646093
0.02672186
0.0267956
0.02658618
0.02622897
0.0255706
0.02456731
0.02347513
0.02193415
0.02060269
0.01906198
0.01765386
0.01633472
0.0150458
0.01384252
0.01342411
0.01268273
0.0107936
0.009694264
0.008782252
0.007423124
0.006246991
0.006226964
0.006229736
0.007434166
0.008104425
0.006920459
0.008492096
0.008075408
0.006436108
0.005248077
0.002797132
0.001211949
0.0004697823
0.0007027549
-0.0003345394
-0.0002018553
-0.0003968694
-0.0001924225
0.0001012275
0.0002622222
-0.0001340767
0.0003797613
0.001116613
0.001445064
0.002079156
0.002176274
0.001918251
0.001271295
0.0003698479
-0.0004776679
-0.001108444
-0.001244904
-0.001339596
-0.001410216
-0.001601689
-0.002291015
-0.00312928
-0.003559749
-0.003561114
-0.003377901
-0.002826269
-0.001622704
-0.0007229871
-0.000107808
0.0006264794
0.001179065
0.001395705
0.001297038
0.0009361372
0.0004356782
-8.856448e-05
-0.0005434139
-0.0008824343
-0.001098083
-0.001198781
-0.001196927
-0.001125726
-0.001019739
-0.000902662
-0.0007892569
-0.0006886241
-0.0006074229
-0.0005504368
-0.0005200815
-0.0005168512
-0.000537589
-0.0005784013
-0.0006339156
-0.0006973115
-0.0007626592
-0.0008200876
-0.0008591013
-0.0008629389
-0.00079457
-0.0005777083
2.488986e-05
0.001848211
0.002257242
0.002593352
0.002809399
0.003096841
0.003404165
0.00366804
0.003904844
0.004137765
0.004361401
0.004564271
0.004749229
0.004927076
0.005105867
0.005284261
0.005448043
0.005585589
0.005702633
0.005808005
0.005904314
0.005999028
0.006103832
0.006217533
0.006340689
0.006482979
0.006638886
0.006796941
0.006971367
0.007175688
0.007408621
0.007678516
0.007977832
0.008314013
0.008702081
0.009139576
0.009622922
0.01015342
0.01075136
0.0114275
0.01218621
0.01301658
0.01392525
0.01492978
0.01601737
0.01717792
0.01841808
0.01968142
0.02095227
0.02223357
0.02351372
0.02471803
0.02580996
0.02669986
0.02722979
0.02745019
0.02752139
0.02735248
0.02696156
0.02627768
0.02538538
0.02438665
0.02279864
0.02146342
0.01980171
0.01833469
0.01694293
0.01555394
0.01422862
0.01377739
0.01324816
0.01161183
0.01055107
0.009383144
0.007509017
0.006432615
0.006138899
0.006077742
0.007462491
0.008445194
0.007177492
0.00922559
0.009020353
0.007695544
0.005384743
0.003322553
0.001648334
0.0003340822
-0.0004731293
-0.0005357481
0.0003372162
-0.0004382955
-7.96307e-05
0.0004940971
0.0009666442
0.0007502188
0.001104681
0.001087978
0.001320354
0.00191486
0.001747182
0.001326266
0.001051141
0.0003583923
-0.0006777677
-0.001792589
-0.002058477
-0.00206126
-0.002040899
-0.002035346
-0.002428901
-0.002991025
-0.003148255
-0.002814633
-0.002277302
-0.001465692
-0.0004304235
0.0002133277
0.0004466083
0.0006859222
0.0008998874
0.0009291226
0.0007574813
0.0004297232
3.364097e-05
-0.0003558172
-0.0006839002
-0.0009256447
-0.001077858
-0.00114112
-0.001121411
-0.001041286
-0.0009267589
-0.0007988676
-0.0006727956
-0.0005597714
-0.0004681435
-0.0004029475
-0.0003671537
-0.0003604745
-0.0003806821
-0.0004232061
-0.0004823022
-0.0005523864
-0.0006257941
-0.0006954311
-0.0007517146
-0.0007777282
-0.0007408414
-0.0005633468
1.663725e-05
0.002026768
0.002468954
0.002842848
0.003091314
0.003404553
0.003734718
0.004022313
0.004282588
0.004535761
0.004775504
0.00499117
0.005186295
0.005372141
0.005554808
0.005733583
0.00589797
0.006034686
0.006145674
0.006244194
0.00633631
0.006424718
0.006519724
0.006626633
0.006739962
0.006868035
0.00701813
0.007177197
0.007342879
0.007535423
0.007762488
0.008024211
0.008327732
0.008661831
0.009043834
0.009483937
0.00997842
0.01052352
0.01111996
0.01179879
0.01256147
0.01340874
0.01432528
0.0153253
0.01642329
0.01759105
0.01882557
0.02011666
0.02139425
0.0226698
0.02393758
0.02515883
0.02626898
0.02722169
0.02785794
0.02811315
0.02814591
0.02801524
0.02762866
0.02694757
0.02607592
0.02510968
0.02369058
0.02230105
0.02050683
0.01899674
0.01756197
0.01609839
0.01464897
0.01376538
0.01291845
0.01202596
0.01132715
0.01000012
0.007923626
0.006662418
0.006135186
0.005995935
0.007514238
0.008686006
0.007612479
0.009173586
0.008234219
0.009140104
0.005674237
0.003655938
0.001843706
0.0006565592
-0.0005054416
-0.0005066317
0.0001536655
-0.0003969895
3.463717e-05
0.0006720907
0.00120092
0.001072915
0.001492764
0.001250706
0.001439617
0.002010089
0.001907407
0.001503543
0.0008297118
-0.0003834355
-0.001638783
-0.002529053
-0.002687249
-0.002765148
-0.002698173
-0.002530757
-0.002715537
-0.003035513
-0.002863691
-0.00209123
-0.001115438
-0.0001432903
0.0006587128
0.0009233332
0.000699356
0.0005287061
0.0004766854
0.0003958296
0.0002074117
-5.980601e-05
-0.0003474917
-0.0006121887
-0.0008271872
-0.0009795936
-0.001067498
-0.00108738
-0.001042642
-0.0009489904
-0.0008260187
-0.000690598
-0.0005571197
-0.0004380739
-0.0003421659
-0.0002736348
-0.0002348565
-0.00022664
-0.0002462414
-0.0002893922
-0.0003506679
-0.0004235786
-0.0005023946
-0.0005794389
-0.0006461253
-0.0006885492
-0.0006747245
-0.000531434
1.548058e-05
0.002202895
0.002677472
0.003088877
0.00337029
0.003710534
0.004065123
0.004378115
0.004664
0.004940784
0.005201753
0.005437308
0.005651729
0.005856536
0.006056373
0.006249412
0.006427551
0.006578322
0.00669898
0.006803063
0.006901731
0.006996727
0.007093457
0.007201476
0.007317019
0.007439407
0.007583138
0.007746377
0.007914105
0.008098686
0.008316784
0.008570385
0.008868469
0.009203942
0.009574725
0.01000328
0.01049234
0.01104084
0.01163961
0.01229596
0.01304767
0.01388588
0.01480406
0.01578827
0.01686281
0.0180315
0.01924877
0.02052946
0.02183073
0.02308889
0.02433567
0.02554498
0.02666098
0.02764823
0.02839827
0.0287282
0.02872562
0.02858456
0.02821755
0.02755288
0.0266137
0.0256849
0.02464487
0.02304124
0.021207
0.01963025
0.01817082
0.01672381
0.01526137
0.01436844
0.01388651
0.01223253
0.01109232
0.01048988
0.008562619
0.00686245
0.006081506
0.005898225
0.007607642
0.009384972
0.007978424
0.008725377
0.008267907
0.009354872
0.005860506
0.003970586
0.002107087
0.0001140027
-0.001080211
-0.0004743498
0.000434409
-0.0002322039
0.0001974886
0.0008999435
0.001600797
0.001381608
0.001561364
0.001770684
0.001914863
0.002367878
0.002326421
0.001616816
0.0001663605
-0.001353201
-0.002324733
-0.002911905
-0.003232199
-0.003440707
-0.003306132
-0.003040839
-0.003030437
-0.003001904
-0.002420083
-0.001301938
-9.665537e-05
0.0007770505
0.001444001
0.001469227
0.0007580627
0.0001666025
-5.828976e-05
-0.0001724436
-0.0003175805
-0.0004974771
-0.0006777342
-0.0008350855
-0.000955803
-0.001033294
-0.001065109
-0.001045069
-0.0009740503
-0.0008646434
-0.0007326651
-0.0005906265
-0.0004530299
-0.0003319489
-0.000234981
-0.0001662096
-0.0001270338
-0.0001178522
-0.0001371899
-0.0001805866
-0.0002425463
-0.0003173637
-0.0003984336
-0.0004798123
-0.0005532615
-0.0006057996
-0.0006095337
-0.0004948123
1.617577e-05
0.002376195
0.002882394
0.003330848
0.003645389
0.00401348
0.004393709
0.004733244
0.005045775
0.005347189
0.005630196
0.0058858
0.006118666
0.006339931
0.006553917
0.006757004
0.006942321
0.007099673
0.007224046
0.007326014
0.00742137
0.00751458
0.007606915
0.007707278
0.007818613
0.007933259
0.008062785
0.008218522
0.008387585
0.008564313
0.008771203
0.009016906
0.009301223
0.009637784
0.01000624
0.01042242
0.01090354
0.01144919
0.0120559
0.01271294
0.0134466
0.01427403
0.01519259
0.01618108
0.0172343
0.01838522
0.01961481
0.02087309
0.02217784
0.02346102
0.02469591
0.0258822
0.02699184
0.02797738
0.02879524
0.02928028
0.02931757
0.02909717
0.02873647
0.02812916
0.0271778
0.02627033
0.02533487
0.02358389
0.02191667
0.02021067
0.01868372
0.01718213
0.0157275
0.01445871
0.01409885
0.01302623
0.01135713
0.01098324
0.009208692
0.007081465
0.006019289
0.005873896
0.007050317
0.009481759
0.009125712
0.007880022
0.008526245
0.009733539
0.007084187
0.0042862
0.002165827
0.0003499052
-0.0005870324
-0.0002973454
-0.0003601847
-0.0001636335
0.0003353491
0.0009635057
0.001585875
0.001404824
0.001492477
0.002235322
0.002270928
0.002481329
0.001978391
0.0009398131
-0.000620725
-0.001677475
-0.00251432
-0.003258147
-0.003739328
-0.003947544
-0.003722235
-0.003387358
-0.003050562
-0.002627678
-0.001872477
-0.0009392435
5.636489e-05
0.001115227
0.002082381
0.001970888
0.0006595035
-0.0002325935
-0.0005566649
-0.0006799637
-0.0007558394
-0.0008385602
-0.0009219412
-0.0009932055
-0.001042987
-0.001064847
-0.001052811
-0.0009995119
-0.0009058466
-0.0007816613
-0.000640319
-0.0004923307
-0.0003518433
-0.0002304409
-0.0001345423
-6.829252e-05
-3.158793e-05
-2.415753e-05
-4.471904e-05
-8.952566e-05
-0.0001529427
-0.0002290984
-0.0003123543
-0.0003960341
-0.0004736214
-0.000533137
-0.000548824
-0.00045608
1.872228e-05
0.00254611
0.003083121
0.003567998
0.003915572
0.004312062
0.004718923
0.005086091
0.005426493
0.005754124
0.00606115
0.006339047
0.006592789
0.00683322
0.007064657
0.007281807
0.007478122
0.007645806
0.007779561
0.007885876
0.007982375
0.008077907
0.008172152
0.008270276
0.008379902
0.008494425
0.008614951
0.008760345
0.008929522
0.009106246
0.009302755
0.009536617
0.009811055
0.01013619
0.01050601
0.01091074
0.01137657
0.01190985
0.01251363
0.01317388
0.01388563
0.01469706
0.01559714
0.01658498
0.01763033
0.01874659
0.01996397
0.02122309
0.02250934
0.02380575
0.02503133
0.02621474
0.0273085
0.02828366
0.02912042
0.02971376
0.02985066
0.02962097
0.02922108
0.02866505
0.02773188
0.02685907
0.02593398
0.02415801
0.02245994
0.02069127
0.01928533
0.01767335
0.01611699
0.01472627
0.01433804
0.01348187
0.01181162
0.0111203
0.009679739
0.007579016
0.006315926
0.006080681
0.007240363
0.009620184
0.007975824
0.007544734
0.009224981
0.008167178
0.00853142
0.004668496
0.002385815
0.0007052098
-8.585312e-05
-0.000430622
-0.0005012403
-2.328432e-05
0.000593976
0.001101267
0.001372958
0.001723671
0.001507723
0.001851474
0.002165758
0.002166805
0.001270245
0.0001988208
-0.0009279095
-0.001875519
-0.00279656
-0.003561229
-0.004004312
-0.004130274
-0.003812409
-0.003129268
-0.002655867
-0.002504964
-0.002385242
-0.001550807
8.807616e-05
0.001866786
0.003035201
0.002300451
0.0005223066
-0.0003965018
-0.0007556802
-0.0009175735
-0.0009809181
-0.001010427
-0.001033861
-0.001055053
-0.001065242
-0.001055998
-0.001017543
-0.0009429822
-0.0008330432
-0.0006965204
-0.00054527
-0.0003910632
-0.0002477588
-0.0001272986
-3.496409e-05
2.61021e-05
5.679282e-05
5.894685e-05
3.368004e-05
-1.471889e-05
-8.14769e-05
-0.0001603375
-0.0002455704
-0.0003316132
-0.0004112299
-0.0004747764
-0.0004979242
-0.0004214581
2.146935e-05
0.002711943
0.003278884
0.003799395
0.004179661
0.004604818
0.005039032
0.005434726
0.005804117
0.006159489
0.006492459
0.006794782
0.007071538
0.00733318
0.007583844
0.007817016
0.008025591
0.008203784
0.008346906
0.008458593
0.008555285
0.008650447
0.008744785
0.008839561
0.008943267
0.009055441
0.009168321
0.009298746
0.00945892
0.009634894
0.009821663
0.01004298
0.01030621
0.01061269
0.01097964
0.01137985
0.01182913
0.01234793
0.01293803
0.01360014
0.0143125
0.01509351
0.01597781
0.01695352
0.01800079
0.01909601
0.02028028
0.02154631
0.02280974
0.0241027
0.02536058
0.02652355
0.02760701
0.02857563
0.02941144
0.03007272
0.03032936
0.03010874
0.02968016
0.02913145
0.02824417
0.02734427
0.02634878
0.02475106
0.02309894
0.02114448
0.01981157
0.01812363
0.01654811
0.01510167
0.01453277
0.01403465
0.01234292
0.01065064
0.009955814
0.00786381
0.006507973
0.006064043
0.006545394
0.008815472
0.009106894
0.007400786
0.009366493
0.008517255
0.008189413
0.005007183
0.002554517
0.0008806599
-6.815974e-05
-0.0001142139
-0.0004065437
0.0001457336
0.0009070118
0.001621086
0.001696852
0.001790788
0.001621062
0.001743325
0.002106537
0.001895958
0.001068342
4.592539e-05
-0.001126494
-0.002087978
-0.002929505
-0.003503232
-0.003807538
-0.003932536
-0.003616158
-0.003068538
-0.002851231
-0.002947976
-0.002552278
-0.001001398
0.000790431
0.002639924
0.00342118
0.00230409
0.0005340309
-0.0004653862
-0.0008398906
-0.00100188
-0.001070802
-0.001078485
-0.001061949
-0.001048709
-0.001036119
-0.001010005
-0.0009563927
-0.000867584
-0.0007431485
-0.0005932908
-0.0004303113
-0.0002681474
-0.0001220712
-4.357741e-06
8.053706e-05
0.0001315055
0.0001494387
0.0001386989
0.0001022642
4.462516e-05
-2.873243e-05
-0.0001126115
-0.000200838
-0.0002882868
-0.0003689763
-0.0004330192
-0.0004593273
-0.0003918155
2.800507e-05
0.002872906
0.003468794
0.004023967
0.004436352
0.004890165
0.00535216
0.005777032
0.006176372
0.006560949
0.00692185
0.007250975
0.007553332
0.007838923
0.008111376
0.008363705
0.008587594
0.008778359
0.008932385
0.00905243
0.009151926
0.00924744
0.009342636
0.00943627
0.009534877
0.009643621
0.009753307
0.009870696
0.01001748
0.01019007
0.01037259
0.01058049
0.01082923
0.0111224
0.01147377
0.01187339
0.01230934
0.01281018
0.01338286
0.01403577
0.0147484
0.01550909
0.0163731
0.01732454
0.01836726
0.01945981
0.02060217
0.02184844
0.02312595
0.02439535
0.02565293
0.02681803
0.02790735
0.02886014
0.02968088
0.03034549
0.03071454
0.03061329
0.03015152
0.02953176
0.02867208
0.02762539
0.02675189
0.02557412
0.02373764
0.02171955
0.02008161
0.01844178
0.01687075
0.0155565
0.01493917
0.01458245
0.01270422
0.01064121
0.009790789
0.008616873
0.007011454
0.00607919
0.006142482
0.008429506
0.009810829
0.007540167
0.00823402
0.01003871
0.007202035
0.005663325
0.002847342
0.001299206
0.0005883281
0.0002293051
-9.381874e-05
0.0003386893
0.001092073
0.00189468
0.002090696
0.002090642
0.001870688
0.001949762
0.002352084
0.002001881
0.0009680184
-0.0003566014
-0.00156496
-0.002277091
-0.002668692
-0.002894667
-0.003149963
-0.003420581
-0.003363209
-0.003660153
-0.00365698
-0.00304153
-0.002098969
-0.0006205012
0.001341788
0.002925727
0.003255325
0.002265922
0.0006844848
-0.0004731644
-0.000918957
-0.001055826
-0.001104658
-0.001093627
-0.001046179
-0.001002484
-0.0009737036
-0.0009397248
-0.000881288
-0.0007854183
-0.0006501325
-0.0004873229
-0.0003121265
-0.0001419496
5.208048e-06
0.0001168039
0.0001887818
0.0002216011
0.0002188124
0.0001874361
0.0001332829
6.223254e-05
-1.96597e-05
-0.0001070671
-0.0001955357
-0.0002803333
-0.0003568378
-0.0004164023
-0.0004391113
-0.0003721625
3.48408e-05
0.00302815
0.003651881
0.004240558
0.004684254
0.005166428
0.005656315
0.006110727
0.006540739
0.006955817
0.007346586
0.007704986
0.008035802
0.008348452
0.008645816
0.008920682
0.009163257
0.009369098
0.009536114
0.009666801
0.009771607
0.009868112
0.009963875
0.01005699
0.01015088
0.01025356
0.01036051
0.01046749
0.01059769
0.01076027
0.01093912
0.01113389
0.0113687
0.01164836
0.01197659
0.01237132
0.01279965
0.01328126
0.01383587
0.01446739
0.01517846
0.01593811
0.01676579
0.01769817
0.01872129
0.01981491
0.02093972
0.02214424
0.0234251
0.0246732
0.02592827
0.02712435
0.02818938
0.0291399
0.02994832
0.03061755
0.0310627
0.03104043
0.03058176
0.02992658
0.02912812
0.02802508
0.02705556
0.02601117
0.02419971
0.02235124
0.02048091
0.01891378
0.01741955
0.01586832
0.01455776
0.01434345
0.01339176
0.01126258
0.01021466
0.008976574
0.007132825
0.006012121
0.005925299
0.007621094
0.009267589
0.008144811
0.007749987
0.009593621
0.006923282
0.006118496
0.00260687
0.0008849246
0.0007591671
0.001109351
0.0004143163
0.0006965051
0.001306168
0.002019317
0.002487041
0.002500839
0.002159531
0.002101272
0.002334293
0.001973505
0.0007244004
-0.0007854934
-0.001737542
-0.002229252
-0.002377643
-0.002557599
-0.003057673
-0.003767542
-0.003710263
-0.003638543
-0.003354931
-0.002955664
-0.002289642
-0.0007409543
0.001190747
0.002778531
0.003343738
0.002713301
0.00126438
-0.0002770372
-0.001031417
-0.001162378
-0.001143915
-0.001097194
-0.001023471
-0.0009532615
-0.0009093208
-0.0008718381
-0.0008140957
-0.0007154176
-0.0005710071
-0.000393866
-0.0002039127
-2.363909e-05
0.0001259338
0.0002313961
0.0002879193
0.0002982162
0.0002698429
0.0002137559
0.0001385202
5.235753e-05
-3.821204e-05
-0.000127864
-0.0002132631