# Force        
# CofR         : (0.0000000e+00 0.0000000e+00 0.0000000e+00)
#
# Time         	(total_x total_y total_z)	(pressure_x pressure_y pressure_z)	(viscous_x viscous_y viscous_z)	(porous_x porous_y porous_z)
1              	(8.4046405e-03 -9.1127525e-07 5.2523442e-03)	(0.0000000e+00 0.0000000e+00 0.0000000e+00)	(0.0000000e+00 0.0000000e+00 0.0000000e+00)	(8.4046405e-03 -9.1127525e-07 5.2523442e-03)
2              	(3.7141969e-02 8.8447243e-06 2.1277949e-02)	(0.0000000e+00 0.0000000e+00 0.0000000e+00)	(0.0000000e+00 0.0000000e+00 0.0000000e+00)	(3.7141969e-02 8.8447243e-06 2.1277949e-02)
3              	(6.8854278e-02 -2.6991289e-05 3.7467026e-02)	(0.0000000e+00 0.0000000e+00 0.0000000e+00)	(0.0000000e+00 0.0000000e+00 0.0000000e+00)	(6.8854278e-02 -2.6991289e-05 3.7467026e-02)
4              	(9.0371847e-02 -1.7473460e-05 4.7899386e-02)	(0.0000000e+00 0.0000000e+00 0.0000000e+00)	(0.0000000e+00 0.0000000e+00 0.0000000e+00)	(9.0371847e-02 -1.7473460e-05 4.7899386e-02)
5              	(1.0192322e-01 -7.6249373e-07 5.3397943e-02)	(0.0000000e+00 0.0000000e+00 0.0000000e+00)	(0.0000000e+00 0.0000000e+00 0.0000000e+00)	(1.0192322e-01 -7.6249373e-07 5.3397943e-02)
6              	(1.0709201e-01 1.0531255e-05 5.5909028e-02)	(0.0000000e+00 0.0000000e+00 0.0000000e+00)	(0.0000000e+00 0.0000000e+00 0.0000000e+00)	(1.0709201e-01 1.0531255e-05 5.5909028e-02)
7              	(1.0900365e-01 1.4966098e-05 5.6924924e-02)	(0.0000000e+00 0.0000000e+00 0.0000000e+00)	(0.0000000e+00 0.0000000e+00 0.0000000e+00)	(1.0900365e-01 1.4966098e-05 5.6924924e-02)
8              	(1.0963888e-01 1.5105944e-05 5.7352246e-02)	(0.0000000e+00 0.0000000e+00 0.0000000e+00)	(0.0000000e+00 0.0000000e+00 0.0000000e+00)	(1.0963888e-01 1.5105944e-05 5.7352246e-02)
9              	(1.0992885e-01 1.3307994e-05 5.7606414e-02)	(0.0000000e+00 0.0000000e+00 0.0000000e+00)	(0.0000000e+00 0.0000000e+00 0.0000000e+00)	(1.0992885e-01 1.3307994e-05 5.7606414e-02)
10             	(1.1017762e-01 1.0918158e-05 5.7817916e-02)	(0.0000000e+00 0.0000000e+00 0.0000000e+00)	(0.0000000e+00 0.0000000e+00 0.0000000e+00)	(1.1017762e-01 1.0918158e-05 5.7817916e-02)
11             	(1.1042663e-01 8.5875810e-06 5.8003362e-02)	(0.0000000e+00 0.0000000e+00 0.0000000e+00)	(0.0000000e+00 0.0000000e+00 0.0000000e+00)	(1.1042663e-01 8.5875810e-06 5.8003362e-02)
12             	(1.1065124e-01 6.6024585e-06 5.8154802e-02)	(0.0000000e+00 0.0000000e+00 0.0000000e+00)	(0.0000000e+00 0.0000000e+00 0.0000000e+00)	(1.1065124e-01 6.6024585e-06 5.8154802e-02)
13             	(1.1083160e-01 5.0212098e-06 5.8268776e-02)	(0.0000000e+00 0.0000000e+00 0.0000000e+00)	(0.0000000e+00 0.0000000e+00 0.0000000e+00)	(1.1083160e-01 5.0212098e-06 5.8268776e-02)
14             	(1.1096337e-01 3.8084315e-06 5.8348785e-02)	(0.0000000e+00 0.0000000e+00 0.0000000e+00)	(0.0000000e+00 0.0000000e+00 0.0000000e+00)	(1.1096337e-01 3.8084315e-06 5.8348785e-02)
15             	(1.1105275e-01 2.8956498e-06 5.8401948e-02)	(0.0000000e+00 0.0000000e+00 0.0000000e+00)	(0.0000000e+00 0.0000000e+00 0.0000000e+00)	(1.1105275e-01 2.8956498e-06 5.8401948e-02)
16             	(1.1110969e-01 2.2127580e-06 5.8435707e-02)	(0.0000000e+00 0.0000000e+00 0.0000000e+00)	(0.0000000e+00 0.0000000e+00 0.0000000e+00)	(1.1110969e-01 2.2127580e-06 5.8435707e-02)
17             	(1.1114384e-01 1.7010638e-06 5.8456303e-02)	(0.0000000e+00 0.0000000e+00 0.0000000e+00)	(0.0000000e+00 0.0000000e+00 0.0000000e+00)	(1.1114384e-01 1.7010638e-06 5.8456303e-02)
18             	(1.1116294e-01 1.3150050e-06 5.8468373e-02)	(0.0000000e+00 0.0000000e+00 0.0000000e+00)	(0.0000000e+00 0.0000000e+00 0.0000000e+00)	(1.1116294e-01 1.3150050e-06 5.8468373e-02)
19             	(1.1117255e-01 1.0213399e-06 5.8475109e-02)	(0.0000000e+00 0.0000000e+00 0.0000000e+00)	(0.0000000e+00 0.0000000e+00 0.0000000e+00)	(1.1117255e-01 1.0213399e-06 5.8475109e-02)
20             	(1.1117647e-01 7.9620739e-07 5.8478612e-02)	(0.0000000e+00 0.0000000e+00 0.0000000e+00)	(0.0000000e+00 0.0000000e+00 0.0000000e+00)	(1.1117647e-01 7.9620739e-07 5.8478612e-02)
21             	(1.1117713e-01 6.2246890e-07 5.8480222e-02)	(0.0000000e+00 0.0000000e+00 0.0000000e+00)	(0.0000000e+00 0.0000000e+00 0.0000000e+00)	(1.1117713e-01 6.2246890e-07 5.8480222e-02)
22             	(1.1117607e-01 4.8767874e-07 5.8480766e-02)	(0.0000000e+00 0.0000000e+00 0.0000000e+00)	(0.0000000e+00 0.0000000e+00 0.0000000e+00)	(1.1117607e-01 4.8767874e-07 5.8480766e-02)
23             	(1.1117422e-01 3.8268567e-07 5.8480746e-02)	(0.0000000e+00 0.0000000e+00 0.0000000e+00)	(0.0000000e+00 0.0000000e+00 0.0000000e+00)	(1.1117422e-01 3.8268567e-07 5.8480746e-02)
24             	(1.1117210e-01 3.0066128e-07 5.8480457e-02)	(0.0000000e+00 0.0000000e+00 0.0000000e+00)	(0.0000000e+00 0.0000000e+00 0.0000000e+00)	(1.1117210e-01 3.0066128e-07 5.8480457e-02)
25             	(1.1117003e-01 2.3644628e-07 5.8480072e-02)	(0.0000000e+00 0.0000000e+00 0.0000000e+00)	(0.0000000e+00 0.0000000e+00 0.0000000e+00)	(1.1117003e-01 2.3644628e-07 5.8480072e-02)
26             	(1.1116816e-01 1.8609393e-07 5.8479684e-02)	(0.0000000e+00 0.0000000e+00 0.0000000e+00)	(0.0000000e+00 0.0000000e+00 0.0000000e+00)	(1.1116816e-01 1.8609393e-07 5.8479684e-02)
27             	(1.1116657e-01 1.4656852e-07 5.8479345e-02)	(0.0000000e+00 0.0000000e+00 0.0000000e+00)	(0.0000000e+00 0.0000000e+00 0.0000000e+00)	(1.1116657e-01 1.4656852e-07 5.8479345e-02)
28             	(1.1116526e-01 1.1551743e-07 5.8479077e-02)	(0.0000000e+00 0.0000000e+00 0.0000000e+00)	(0.0000000e+00 0.0000000e+00 0.0000000e+00)	(1.1116526e-01 1.1551743e-07 5.8479077e-02)
29             	(1.1116424e-01 9.1109423e-08 5.8478886e-02)	(0.0000000e+00 0.0000000e+00 0.0000000e+00)	(0.0000000e+00 0.0000000e+00 0.0000000e+00)	(1.1116424e-01 9.1109423e-08 5.8478886e-02)
30             	(1.1116348e-01 7.1914284e-08 5.8478767e-02)	(0.0000000e+00 0.0000000e+00 0.0000000e+00)	(0.0000000e+00 0.0000000e+00 0.0000000e+00)	(1.1116348e-01 7.1914284e-08 5.8478767e-02)
31             	(1.1116295e-01 5.6812340e-08 5.8478714e-02)	(0.0000000e+00 0.0000000e+00 0.0000000e+00)	(0.0000000e+00 0.0000000e+00 0.0000000e+00)	(1.1116295e-01 5.6812340e-08 5.8478714e-02)
32             	(1.1116259e-01 4.4925605e-08 5.8478712e-02)	(0.0000000e+00 0.0000000e+00 0.0000000e+00)	(0.0000000e+00 0.0000000e+00 0.0000000e+00)	(1.1116259e-01 4.4925605e-08 5.8478712e-02)
33             	(1.1116238e-01 3.5557810e-08 5.8478749e-02)	(0.0000000e+00 0.0000000e+00 0.0000000e+00)	(0.0000000e+00 0.0000000e+00 0.0000000e+00)	(1.1116238e-01 3.5557810e-08 5.8478749e-02)
34             	(1.1116229e-01 2.8183406e-08 5.8478813e-02)	(0.0000000e+00 0.0000000e+00 0.0000000e+00)	(0.0000000e+00 0.0000000e+00 0.0000000e+00)	(1.1116229e-01 2.8183406e-08 5.8478813e-02)
35             	(1.1116227e-01 2.2362670e-08 5.8478893e-02)	(0.0000000e+00 0.0000000e+00 0.0000000e+00)	(0.0000000e+00 0.0000000e+00 0.0000000e+00)	(1.1116227e-01 2.2362670e-08 5.8478893e-02)
36             	(1.1116230e-01 1.7764080e-08 5.8478982e-02)	(0.0000000e+00 0.0000000e+00 0.0000000e+00)	(0.0000000e+00 0.0000000e+00 0.0000000e+00)	(1.1116230e-01 1.7764080e-08 5.8478982e-02)
37             	(1.1116236e-01 1.4085073e-08 5.8479065e-02)	(0.0000000e+00 0.0000000e+00 0.0000000e+00)	(0.0000000e+00 0.0000000e+00 0.0000000e+00)	(1.1116236e-01 1.4085073e-08 5.8479065e-02)
38             	(1.1116243e-01 1.1201736e-08 5.8479146e-02)	(0.0000000e+00 0.0000000e+00 0.0000000e+00)	(0.0000000e+00 0.0000000e+00 0.0000000e+00)	(1.1116243e-01 1.1201736e-08 5.8479146e-02)
39             	(1.1116252e-01 8.9223658e-09 5.8479219e-02)	(0.0000000e+00 0.0000000e+00 0.0000000e+00)	(0.0000000e+00 0.0000000e+00 0.0000000e+00)	(1.1116252e-01 8.9223658e-09 5.8479219e-02)
40             	(1.1116260e-01 7.1157861e-09 5.8479284e-02)	(0.0000000e+00 0.0000000e+00 0.0000000e+00)	(0.0000000e+00 0.0000000e+00 0.0000000e+00)	(1.1116260e-01 7.1157861e-09 5.8479284e-02)
41             	(1.1116267e-01 5.6860917e-09 5.8479339e-02)	(0.0000000e+00 0.0000000e+00 0.0000000e+00)	(0.0000000e+00 0.0000000e+00 0.0000000e+00)	(1.1116267e-01 5.6860917e-09 5.8479339e-02)
42             	(1.1116273e-01 4.5556175e-09 5.8479383e-02)	(0.0000000e+00 0.0000000e+00 0.0000000e+00)	(0.0000000e+00 0.0000000e+00 0.0000000e+00)	(1.1116273e-01 4.5556175e-09 5.8479383e-02)
43             	(1.1116279e-01 3.6606066e-09 5.8479418e-02)	(0.0000000e+00 0.0000000e+00 0.0000000e+00)	(0.0000000e+00 0.0000000e+00 0.0000000e+00)	(1.1116279e-01 3.6606066e-09 5.8479418e-02)
44             	(1.1116282e-01 2.9499163e-09 5.8479443e-02)	(0.0000000e+00 0.0000000e+00 0.0000000e+00)	(0.0000000e+00 0.0000000e+00 0.0000000e+00)	(1.1116282e-01 2.9499163e-09 5.8479443e-02)
45             	(1.1116285e-01 2.3834445e-09 5.8479459e-02)	(0.0000000e+00 0.0000000e+00 0.0000000e+00)	(0.0000000e+00 0.0000000e+00 0.0000000e+00)	(1.1116285e-01 2.3834445e-09 5.8479459e-02)
46             	(1.1116287e-01 1.9301408e-09 5.8479469e-02)	(0.0000000e+00 0.0000000e+00 0.0000000e+00)	(0.0000000e+00 0.0000000e+00 0.0000000e+00)	(1.1116287e-01 1.9301408e-09 5.8479469e-02)
47             	(1.1116287e-01 1.5493046e-09 5.8479469e-02)	(0.0000000e+00 0.0000000e+00 0.0000000e+00)	(0.0000000e+00 0.0000000e+00 0.0000000e+00)	(1.1116287e-01 1.5493046e-09 5.8479469e-02)
48             	(1.1116286e-01 1.2521023e-09 5.8479466e-02)	(0.0000000e+00 0.0000000e+00 0.0000000e+00)	(0.0000000e+00 0.0000000e+00 0.0000000e+00)	(1.1116286e-01 1.2521023e-09 5.8479466e-02)
49             	(1.1116285e-01 1.0149765e-09 5.8479462e-02)	(0.0000000e+00 0.0000000e+00 0.0000000e+00)	(0.0000000e+00 0.0000000e+00 0.0000000e+00)	(1.1116285e-01 1.0149765e-09 5.8479462e-02)
50             	(1.1116284e-01 8.2297909e-10 5.8479456e-02)	(0.0000000e+00 0.0000000e+00 0.0000000e+00)	(0.0000000e+00 0.0000000e+00 0.0000000e+00)	(1.1116284e-01 8.2297909e-10 5.8479456e-02)
51             	(1.1116283e-01 6.6801286e-10 5.8479451e-02)	(0.0000000e+00 0.0000000e+00 0.0000000e+00)	(0.0000000e+00 0.0000000e+00 0.0000000e+00)	(1.1116283e-01 6.6801286e-10 5.8479451e-02)
