/*--------------------------------*- C++ -*----------------------------------*\
| =========                 |                                                 |
| \\      /  F ield         | OpenFOAM: The Open Source CFD Toolbox           |
|  \\    /   O peration     | Version:  2106                                  |
|   \\  /    A nd           | Website:  www.openfoam.com                      |
|    \\/     M anipulation  |                                                 |
\*---------------------------------------------------------------------------*/
FoamFile
{
    version     2.0;
    format      ascii;
    arch        "LSB;label=32;scalar=64";
    class       volScalarField;
    location    "70";
    object      p;
}
// * * * * * * * * * * * * * * * * * * * * * * * * * * * * * * * * * * * * * //

dimensions      [ 0 2 -2 0 0 0 0 ];

internalField   nonuniform List<scalar> 
300000
(
0.0001927494
0.0002825978
0.0003896585
0.0004936464
0.000595701
0.0006972331
0.0007981165
0.0008978853
0.0009960878
0.001092241
0.001185808
0.001276244
0.001363027
0.001445675
0.001523759
0.001596919
0.001664869
0.001727405
0.001784401
0.001835797
0.001881598
0.001921863
0.001956694
0.001986234
0.00201066
0.002030174
0.002044978
0.002055287
0.002061356
0.002063426
0.002061734
0.002056563
0.002048139
0.002036666
0.002022428
0.002005639
0.001986569
0.001965431
0.001942323
0.001917625
0.001891479
0.001864087
0.00183554
0.001806122
0.0017759
0.001745285
0.00171418
0.001682798
0.001651224
0.00161981
0.001588826
0.001557707
0.001527322
0.001497442
0.001468161
0.001439697
0.001412202
0.001385604
0.0013601
0.001335316
0.001312367
0.001290401
0.00126981
0.001250489
0.001233066
0.001216888
0.001202407
0.001189488
0.001178594
0.00116883
0.001161259
0.001155613
0.001152153
0.001150441
0.001150343
0.001152687
0.00115654
0.001163113
0.001171719
0.001184011
0.00119649
0.001211402
0.00123209
0.00125392
0.001278106
0.001305324
0.001338111
0.001370027
0.001405994
0.001445697
0.001494045
0.001544942
0.001601196
0.001662691
0.001731318
0.001797905
0.001873729
0.001966968
0.002058147
0.002164962
0.002281524
0.002411813
0.002554634
0.002720181
0.002883939
0.00307231
0.003278179
0.003495735
0.003741303
0.004030912
0.004357253
0.004678487
0.005039318
0.005420828
0.005843074
0.006320782
0.006811361
0.007334328
0.007820195
0.00830862
0.008916466
0.00948874
0.00994153
0.01036598
0.01095588
0.01128954
0.01151289
0.01173973
0.01196713
0.01224074
0.0121781
0.01222782
0.01217426
0.01214308
0.01199088
0.01237393
0.01189789
0.01254009
0.01251472
0.01259063
0.01354124
0.01586496
0.01859464
0.0213318
0.02471391
0.02649532
0.02059677
0.01371594
0.008215335
0.008404668
0.0003931113
0.0004811774
0.0005839528
0.0006726607
0.0007503985
0.0008216242
0.0008874589
0.0009478743
0.001002657
0.001051608
0.001094553
0.001131284
0.001161584
0.00118532
0.00120248
0.001213159
0.001217531
0.001215846
0.001208436
0.001195685
0.001178007
0.001155836
0.001129619
0.001099809
0.001066853
0.001031171
0.00099316
0.000953209
0.0009116959
0.0008689693
0.000825352
0.0007811439
0.0007366021
0.0006919895
0.0006475708
0.0006035378
0.0005600577
0.000517276
0.0004753598
0.0004345048
0.0003947573
0.0003561841
0.0003188946
0.0002830128
0.0002485746
0.0002156443
0.0001841793
0.0001542603
0.0001259375
9.924401e-05
7.413224e-05
5.051296e-05
2.868404e-05
8.399202e-06
-1.045405e-05
-2.782347e-05
-4.364832e-05
-5.793871e-05
-7.075853e-05
-8.22471e-05
-9.224431e-05
-0.0001010539
-0.0001086421
-0.0001150556
-0.0001201951
-0.0001242691
-0.0001272459
-0.0001291529
-0.000129994
-0.000130151
-0.0001291219
-0.0001278095
-0.000125581
-0.0001221141
-0.0001180698
-0.0001137048
-0.0001087891
-0.0001029437
-9.662364e-05
-9.011202e-05
-8.329359e-05
-7.444189e-05
-6.548355e-05
-5.785121e-05
-4.963608e-05
-4.082888e-05
-3.08543e-05
-2.173262e-05
-1.104337e-05
1.146913e-06
1.411008e-05
2.459507e-05
3.594413e-05
4.73345e-05
5.891823e-05
7.072245e-05
8.675022e-05
0.0001049162
0.0001202645
0.0001360444
0.0001546099
0.0001746665
0.0001900872
0.0002071697
0.0002273661
0.0002560054
0.0002773353
0.0003048811
0.0003348231
0.0003697741
0.000410913
0.0004509978
0.0004957197
0.00053507
0.0005827796
0.0006451194
0.0007066755
0.0007715952
0.0008316087
0.0008806073
0.0009701844
0.001058739
0.001117976
0.001164448
0.001285628
0.001376285
0.001490001
0.001597939
0.001685771
0.001838526
0.0020231
0.002304165
0.002632882
0.002927004
0.003237835
0.003820379
0.004510104
0.005600946
0.006800533
0.00852997
0.01105966
0.01445833
0.01866364
0.02296146
0.02602127
0.02567158
0.01964402
0.01052662
0.004634238
0.001575391
0.0005748603
0.0006829357
0.0008155791
0.0009372152
0.001050314
0.001159849
0.001266648
0.001369976
0.001468953
0.001562866
0.001651109
0.001733045
0.001808041
0.001875613
0.001935467
0.001987455
0.002031547
0.00206782
0.002096463
0.00211775
0.002132002
0.002139579
0.002140877
0.002136316
0.002126329
0.002111351
0.002091807
0.002068102
0.002040632
0.002009808
0.001976033
0.001939682
0.001901125
0.001860701
0.00181871
0.001775455
0.00173121
0.001686262
0.001640869
0.001595212
0.001549543
0.001504059
0.001458957
0.001414363
0.001370437
0.001327301
0.001285173
0.001244113
0.001204204
0.001165509
0.001128211
0.001092467
0.001058178
0.001025546
0.000994488
0.0009649619
0.0009371317
0.0009111964
0.0008871037
0.0008647283
0.000843959
0.0008251461
0.0008081135
0.0007927955
0.0007792838
0.0007677787
0.0007580833
0.0007502561
0.0007442856
0.0007400164
0.0007377972
0.0007365832
0.0007373639
0.0007410918
0.0007467493
0.000753501
0.000761799
0.0007719177
0.0007840275
0.0007987539
0.0008155272
0.0008344107
0.0008548847
0.0008770841
0.0009023994
0.0009306566
0.000960859
0.0009940471
0.001029233
0.001067558
0.001107751
0.00115262
0.001202071
0.001254426
0.001310674
0.001372764
0.001440922
0.001511903
0.001587863
0.0016703
0.001757143
0.001856045
0.001961234
0.002074672
0.002200741
0.002337161
0.00247162
0.002619966
0.002782383
0.002962569
0.003158477
0.003361984
0.003566902
0.003775882
0.003982257
0.004217684
0.004475669
0.004741412
0.00498486
0.00519999
0.005416188
0.005651571
0.005879265
0.006093698
0.006299527
0.006506898
0.006677059
0.006802788
0.006914124
0.007053953
0.007242501
0.007461035
0.007739085
0.00797629
0.008275179
0.008780627
0.009588129
0.01072638
0.01216441
0.01407156
0.01669997
0.02012628
0.02410756
0.02791363
0.03028934
0.02943287
0.02338781
0.01333208
0.00626545
0.002737836
0.0007492307
0.000882633
0.001042429
0.001185085
0.001313659
0.001434205
0.001547856
0.001653928
0.001751592
0.001840176
0.001919117
0.001987863
0.002045916
0.002092962
0.002128926
0.002153916
0.002168202
0.002172198
0.002166434
0.002151521
0.00212812
0.002096921
0.002058639
0.002014008
0.001963747
0.001908546
0.001849057
0.001785894
0.00171965
0.001650909
0.001580232
0.001508137
0.00143509
0.001361501
0.001287759
0.001214252
0.001141313
0.001069231
0.0009982503
0.0009286042
0.0008605542
0.0007942725
0.0007298905
0.000667543
0.0006073868
0.000549531
0.000494087
0.0004410816
0.000390576
0.0003426256
0.0002973176
0.0002546556
0.0002145107
0.0001770561
0.0001422956
0.0001100353
8.018437e-05
5.286127e-05
2.810983e-05
5.798834e-06
-1.424654e-05
-3.190262e-05
-4.731081e-05
-6.066163e-05
-7.19901e-05
-8.119579e-05
-8.845323e-05
-9.384592e-05
-9.739836e-05
-9.925064e-05
-9.924253e-05
-9.784404e-05
-9.533214e-05
-9.112138e-05
-8.524121e-05
-7.798136e-05
-6.985648e-05
-6.067794e-05
-5.018534e-05
-3.775464e-05
-2.516403e-05
-1.156665e-05
3.732615e-06
1.942049e-05
3.644409e-05
5.467785e-05
7.309267e-05
9.25691e-05
0.0001124261
0.0001343314
0.0001582356
0.0001831949
0.000209506
0.000236413
0.0002636762
0.0002929748
0.000326859
0.000362571
0.0004008955
0.0004384816
0.0004821767
0.0005306107
0.0005823387
0.0006343672
0.0006933192
0.0007546872
0.0008315586
0.0009005257
0.0009847337
0.001085327
0.001202186
0.001331268
0.001449598
0.001584921
0.001728053
0.001897472
0.002086941
0.002301287
0.002517535
0.002733838
0.00295303
0.003180286
0.003451198
0.003721235
0.003989422
0.004300811
0.004595704
0.004862912
0.005128555
0.005396304
0.005723519
0.006156528
0.00662639
0.007056593
0.00759488
0.008301783
0.009300549
0.01067488
0.01244837
0.0147011
0.01759252
0.02120103
0.02531948
0.02931502
0.03202994
0.03179173
0.02656511
0.0156674
0.006697492
0.001497856
0.0009195123
0.001079906
0.001269136
0.001436349
0.001586764
0.001728357
0.001862855
0.001989678
0.002107937
0.002216807
0.00231555
0.002403458
0.002479898
0.00254443
0.002596875
0.002637291
0.002665928
0.002683207
0.002689676
0.002685954
0.002672721
0.002650702
0.002620643
0.002583304
0.002539434
0.002489736
0.002434882
0.002375525
0.002312297
0.002245804
0.002176629
0.00210533
0.002032423
0.001958374
0.001883611
0.001808542
0.001733538
0.001658927
0.001585011
0.001512079
0.001440398
0.001370195
0.00130166
0.001234978
0.001170329
0.001107849
0.00104765
0.0009898431
0.000934543
0.0008818184
0.0008317123
0.0007843131
0.0007396486
0.0006977081
0.0006586018
0.0006223133
0.0005886379
0.0005575794
0.000529323
0.0005039034
0.0004811203
0.0004608163
0.0004430974
0.0004279091
0.0004150184
0.0004045121
0.0003964535
0.0003907556
0.0003873972
0.0003861838
0.0003869014
0.0003899152
0.0003950923
0.0004017974
0.000410297
0.0004213665
0.0004344603
0.0004490686
0.0004652805
0.0004838081
0.0005038506
0.0005258809
0.0005500543
0.0005757108
0.0006031089
0.0006326965
0.0006643531
0.0006985021
0.0007337773
0.0007721674
0.0008141093
0.0008575321
0.0009040533
0.0009508713
0.001001835
0.001056999
0.001117079
0.001181307
0.001251014
0.001319022
0.001392573
0.001475378
0.00156256
0.001651246
0.001743851
0.001846005
0.001961782
0.002074307
0.00220467
0.002331369
0.002483369
0.002638363
0.002798184
0.002963015
0.003131866
0.003310192
0.003507847
0.003718117
0.003944148
0.004158143
0.00437216
0.004597138
0.004825913
0.005063282
0.005316797
0.005580707
0.005860526
0.006127297
0.006360127
0.006593054
0.006873597
0.007244163
0.007693734
0.00818035
0.008700489
0.00939406
0.01035974
0.01172204
0.01352092
0.01582164
0.01872573
0.02229797
0.02640022
0.03052461
0.03365295
0.03420911
0.03002285
0.01871463
0.007772829
0.0007296967
0.001087471
0.001275435
0.001495191
0.001687618
0.001859596
0.002020639
0.002172641
0.002314767
0.002445877
0.002564918
0.002670942
0.00276308
0.002840602
0.002903034
0.002950235
0.002982375
0.002999866
0.003003319
0.002993499
0.002971263
0.002937524
0.002893249
0.002839433
0.002777065
0.002707112
0.002630499
0.002548094
0.002460734
0.002369235
0.002274372
0.002176878
0.002077456
0.001976754
0.001875365
0.001773809
0.001672561
0.001572071
0.001472759
0.001374993
0.001279094
0.001185345
0.001094012
0.001005325
0.0009194637
0.0008365972
0.0007568849
0.0006804459
0.0006073833
0.0005377965
0.0004717629
0.0004093034
0.0003504563
0.000295278
0.0002436988
0.0001956573
0.0001512592
0.0001103992
7.285784e-05
3.867005e-05
7.975309e-06
-1.938365e-05
-4.379087e-05
-6.509503e-05
-8.324988e-05
-9.861065e-05
-0.000111296
-0.0001212215
-0.0001284584
-0.0001331294
-0.0001354479
-0.0001356007
-0.0001337385
-0.0001293643
-0.000122926
-0.0001147653
-0.0001053242
-9.367285e-05
-8.038041e-05
-6.558382e-05
-4.922781e-05
-3.092849e-05
-1.140661e-05
9.501155e-06
3.102299e-05
5.490248e-05
8.011412e-05
0.0001064868
0.0001345158
0.0001633352
0.0001932659
0.0002255865
0.0002597796
0.0002977663
0.0003331126
0.0003722427
0.0004147202
0.0004600462
0.000508947
0.0005608273
0.0006143872
0.0006724062
0.0007351229
0.0008013561
0.0008763281
0.0009509537
0.001033403
0.001123051
0.001218903
0.001330437
0.001440272
0.001587564
0.001725116
0.001885517
0.002038929
0.002208846
0.002391184
0.002594907
0.002811182
0.003062326
0.003315116
0.003554279
0.003814622
0.004087194
0.004378645
0.004682315
0.004976845
0.005302633
0.005658471
0.00596622
0.006270105
0.006585476
0.006973785
0.007463651
0.008030699
0.008652103
0.00938815
0.01034922
0.0117342
0.01357455
0.01593353
0.01888527
0.02250368
0.02670855
0.03107456
0.03472149
0.03610416
0.03302326
0.02193003
0.008946472
-0.0003394076
0.001254046
0.001469842
0.001720894
0.00193951
0.002134181
0.002316162
0.002487755
0.002648113
0.002796043
0.002930407
0.003050133
0.003154237
0.003241924
0.00331272
0.003366525
0.003403582
0.00342441
0.003429736
0.003420453
0.00339756
0.003362104
0.003315169
0.003257868
0.003191297
0.003116514
0.003034531
0.002946297
0.00285271
0.002754652
0.002652975
0.002548473
0.002441893
0.002333929
0.002225218
0.002116333
0.002007789
0.001900058
0.001793587
0.001688781
0.001585988
0.001485506
0.001387608
0.001292551
0.001200553
0.001111785
0.001026422
0.0009446199
0.0008664811
0.0007920953
0.0007215689
0.0006549583
0.0005922594
0.0005335196
0.00047876
0.0004278714
0.0003808689
0.0003378338
0.0002985667
0.000262891
0.0002309734
0.0002028068
0.0001779894
0.0001566044
0.0001386335
0.0001239091
0.0001121696
0.0001033852
9.761527e-05
9.478769e-05
9.464911e-05
9.73546e-05
0.0001021082
0.0001089707
0.0001189558
0.0001315247
0.0001453634
0.0001611991
0.000179234
0.0001989801
0.0002215936
0.0002460489
0.0002714756
0.0002992673
0.0003277785
0.0003581377
0.0003917805
0.0004268059
0.0004628867
0.0005010465
0.0005414562
0.0005830354
0.0006265889
0.0006750829
0.0007240923
0.0007740985
0.0008272887
0.0008849355
0.0009465702
0.001009861
0.001077018
0.001144744
0.001221912
0.001300323
0.001385151
0.001472886
0.001563054
0.001664258
0.001770344
0.001883809
0.002000725
0.00214095
0.002292364
0.002448834
0.002602316
0.002767556
0.002941899
0.00313075
0.003339743
0.003562473
0.003806625
0.004039056
0.0042833
0.004541963
0.004814519
0.005088338
0.00535939
0.005686567
0.006016764
0.006327734
0.006625449
0.006932244
0.007284731
0.007746187
0.008297529
0.008926556
0.009695945
0.01062521
0.01188872
0.01366471
0.01600746
0.01894286
0.02257462
0.02688638
0.03154653
0.03571036
0.03783607
0.03578467
0.025409
0.01034108
-0.001160258
0.001419697
0.001663447
0.001946275
0.002191785
0.002409919
0.002613616
0.002805516
0.00298462
0.003149513
0.003298802
0.003431148
0.003545343
0.003640446
0.003715915
0.003771647
0.003807933
0.003825388
0.003824876
0.003807448
0.003774288
0.003726635
0.003665756
0.003592939
0.003509466
0.003416567
0.003315415
0.003207133
0.003092773
0.002973354
0.002849877
0.002723284
0.002594441
0.002464158
0.002333176
0.002202179
0.002071779
0.00194252
0.001814901
0.00168939
0.001566405
0.001446297
0.001329368
0.001215891
0.001106129
0.001000297
0.0008985551
0.0008010749
0.0007079939
0.0006193931
0.0005353617
0.0004559914
0.0003812946
0.0003112512
0.0002459013
0.0001851915
0.0001289877
7.7356e-05
3.025608e-05
-1.260963e-05
-5.122835e-05
-8.555956e-05
-0.0001158842
-0.0001421924
-0.0001648001
-0.0001835867
-0.0001988501
-0.0002108327
-0.0002194737
-0.000224806
-0.0002271722
-0.0002264428
-0.000222804
-0.0002172906
-0.0002091
-0.0001978664
-0.0001844369
-0.0001696638
-0.0001526004
-0.0001334914
-0.0001123435
-8.875291e-05
-6.453802e-05
-3.780557e-05
-8.995994e-06
1.847934e-05
5.001693e-05
8.367353e-05
0.0001182359
0.0001534824
0.0001910786
0.0002302809
0.0002715749
0.0003150592
0.0003618883
0.0004079024
0.0004572495
0.0005099979
0.0005659518
0.0006279673
0.0006919005
0.0007531822
0.0008233303
0.0008999203
0.0009786955
0.001064156
0.001157329
0.001253402
0.001354235
0.001468809
0.001592264
0.001721033
0.001877762
0.002046686
0.002207263
0.002376848
0.002561793
0.002761864
0.002980054
0.003216344
0.003472931
0.003718533
0.003992453
0.004269662
0.004557182
0.004850542
0.005163756
0.005477026
0.005819864
0.006183237
0.006525503
0.006831997
0.00718392
0.007617916
0.008169819
0.008854368
0.009638753
0.01055499
0.01176915
0.01347049
0.01577686
0.01872149
0.02236077
0.02674218
0.03165231
0.03642318
0.0394357
0.03835339
0.02901808
0.01185044
-0.001633827
0.001584564
0.001856328
0.002171274
0.002444294
0.002686699
0.002913078
0.003126409
0.003325539
0.00350884
0.003674695
0.003821535
0.003947962
0.004052922
0.004135847
0.004196674
0.004235784
0.00425392
0.004252105
0.004231567
0.004193669
0.004139842
0.004071525
0.003990163
0.003897189
0.003793981
0.003681839
0.003562007
0.003435665
0.003303929
0.00316789
0.003028596
0.002887004
0.002743999
0.002600388
0.002456909
0.002314239
0.002172974
0.002033644
0.001896733
0.001762695
0.001631922
0.001504737
0.001381418
0.001262226
0.001147412
0.001037169
0.0009316373
0.0008309868
0.0007353239
0.0006447118
0.0005592384
0.0004789611
0.000403845
0.0003338761
0.0002690507
0.0002092309
0.0001543578
0.0001045151
5.948664e-05
1.90799e-05
-1.672567e-05
-4.798278e-05
-7.469493e-05
-9.748828e-05
-0.0001160183
-0.0001305987
-0.000141479
-0.0001486727
-0.0001523027
-0.0001527333
-0.0001497865
-0.0001434448
-0.0001347558
-0.0001234076
-0.0001089377
-9.198411e-05
-7.299925e-05
-5.165211e-05
-2.843971e-05
-3.1213e-06
2.543064e-05
5.454361e-05
8.59953e-05
0.0001204612
0.0001539364
0.0001895315
0.0002283812
0.0002690956
0.0003108356
0.0003542435
0.0003988859
0.0004456046
0.0004948514
0.0005469062
0.0005994011
0.0006550496
0.0007129117
0.000774362
0.0008403204
0.0009097739
0.0009765261
0.00105149
0.001130061
0.001213241
0.001301074
0.001393989
0.001492891
0.001598839
0.001711655
0.001833128
0.001955782
0.002106041
0.002279542
0.002438194
0.002599777
0.002776907
0.002968993
0.003176286
0.003400445
0.003647518
0.003900338
0.004157252
0.004434952
0.004692841
0.004985388
0.005301819
0.005588687
0.005908296
0.006275471
0.006631566
0.006941526
0.007276132
0.00767842
0.00819555
0.008849678
0.00962726
0.01055254
0.01172622
0.01332118
0.01552111
0.01843917
0.02209156
0.02653411
0.03166862
0.03699088
0.04095406
0.04094102
0.03284272
0.013668
-0.001644684
0.001748539
0.002048307
0.002395593
0.002696608
0.002963981
0.003213917
0.003449702
0.00367
0.00387292
0.004056546
0.004218993
0.004358586
0.004474092
0.004564866
0.004630854
0.004672488
0.004690599
0.004686335
0.004661077
0.004616357
0.004553789
0.004474995
0.004381584
0.004275149
0.004157235
0.004029295
0.003892715
0.003748829
0.003598898
0.003444131
0.003285702
0.003124708
0.002962137
0.002798903
0.002635827
0.002473668
0.002313112
0.002154758
0.00199914
0.001846739
0.001698011
0.001553333
0.001413016
0.001277333
0.00114655
0.001020921
0.0009006127
0.0007857616
0.0006765346
0.0005729977
0.0004752077
0.0003832429
0.0002971084
0.0002167457
0.00014215
7.322414e-05
9.806978e-06
-4.805181e-05
-0.0001003809
-0.0001474846
-0.0001895397
-0.0002265125
-0.0002583883
-0.0002857169
-0.0003083935
-0.0003268218
-0.0003409985
-0.0003509972
-0.0003571135
-0.0003596388
-0.0003583269
-0.0003537605
-0.0003464103
-0.0003356836
-0.0003219059
-0.000305772
-0.0002869945
-0.000265716
-0.0002426809
-0.0002171646
-0.0001888437
-0.0001596892
-0.0001272952
-9.389717e-05
-5.860728e-05
-2.365027e-05
1.475736e-05
5.612935e-05
9.848719e-05
0.0001413063
0.0001857861
0.0002331492
0.0002820483
0.0003327424
0.0003862678
0.0004436166
0.0004995879
0.0005598316
0.0006261174
0.0006940448
0.0007633861
0.0008387489
0.0009176934
0.0009997014
0.001091504
0.00118373
0.001281105
0.001393607
0.001507355
0.001634879
0.00176182
0.001904122
0.002080952
0.002252626
0.002427159
0.002609338
0.002800808
0.003010792
0.00324039
0.003495681
0.003752384
0.004017955
0.004313584
0.004571129
0.004862684
0.005185831
0.005479866
0.00582285
0.006188666
0.006520049
0.006853996
0.007206485
0.00759747
0.008084366
0.008712443
0.009492903
0.01042032
0.01157102
0.01312382
0.01521786
0.01802027
0.02166967
0.02621286
0.03157543
0.03736576
0.04228261
0.04355581
0.03683618
0.01599533
-0.00129871
0.001911301
0.002238991
0.002618721
0.002948112
0.003241089
0.003515443
0.003774762
0.004017502
0.004241467
0.004444391
0.004624021
0.004778379
0.004906041
0.005006296
0.005079101
0.005124947
0.005144743
0.005139766
0.005111568
0.005061876
0.004992498
0.004905258
0.004801945
0.004684319
0.00455409
0.004412884
0.004262231
0.004103611
0.00393844
0.003768052
0.003593731
0.003416696
0.003238047
0.003058784
0.002879816
0.00270196
0.002525971
0.002352513
0.002182163
0.002015435
0.00185279
0.001694663
0.001541397
0.001393281
0.001250576
0.001113546
0.0009824258
0.0008573365
0.00073842
0.0006258114
0.0005195362
0.0004196519
0.0003261975
0.0002391186
0.0001583665
8.390035e-05
1.552746e-05
-4.684849e-05
-0.0001031396
-0.0001535554
-0.0001983894
-0.0002377565
-0.0002716522
-0.0003001103
-0.0003236619
-0.0003426252
-0.0003568239
-0.000366474
-0.0003718159
-0.0003732068
-0.0003707122
-0.0003640531
-0.0003543427
-0.0003416363
-0.0003252645
-0.000306219
-0.0002845222
-0.0002599015
-0.0002332906
-0.0002045172
-0.0001724609
-0.0001389142
-0.0001035242
-6.689729e-05
-2.562342e-05
1.303456e-05
5.387337e-05
9.929737e-05
0.0001463244
0.0001931807
0.0002411881
0.0002923608
0.0003449669
0.0003987548
0.00045486
0.0005156107
0.0005753463
0.0006386847
0.0007077874
0.0007790343
0.0008494225
0.0009221801
0.001005365
0.001090821
0.001179877
0.001277619
0.001379465
0.001483997
0.00159863
0.001726833
0.001855456
0.001993005
0.002157341
0.002322929
0.002505987
0.002699964
0.002883274
0.003078797
0.00329979
0.003549615
0.003804566
0.004067963
0.004362227
0.004619136
0.004902295
0.005211467
0.005505752
0.005831709
0.006184343
0.006527042
0.006859302
0.007191781
0.007568203
0.008035347
0.008639113
0.009389774
0.01029561
0.01143656
0.01291327
0.01491327
0.0176979
0.02129208
0.02583247
0.03135392
0.03759949
0.04347374
0.04610982
0.04073907
0.01885892
-0.0005607753
0.002072351
0.002427781
0.00283993
0.00319795
0.003517056
0.003816611
0.004100491
0.00436693
0.004613391
0.004837205
0.005035696
0.005206513
0.005347993
0.005459312
0.005540404
0.005591762
0.00561433
0.005609473
0.0055789
0.005524525
0.005448347
0.005352376
0.005238591
0.005108923
0.004965253
0.004809384
0.004643014
0.004467775
0.004285245
0.004096913
0.00390418
0.003708391
0.003510782
0.003312452
0.003114414
0.002917567
0.002722731
0.002530655
0.002341978
0.00215726
0.001976992
0.001801638
0.001631605
0.001467214
0.001308747
0.001156464
0.001010636
0.0008714611
0.0007390336
0.0006135064
0.0004949552
0.000383398
0.0002788741
0.0001813671
9.080194e-05
7.130934e-06
-6.97777e-05
-0.0001401251
-0.0002039009
-0.0002611394
-0.0003121195
-0.0003571809
-0.0003962912
-0.0004292366
-0.0004569918
-0.0004795114
-0.0004967377
-0.000509109
-0.0005168945
-0.000520161
-0.00051922
-0.0005137594
-0.0005046183
-0.0004927241
-0.000476505
-0.000457266
-0.0004356932
-0.0004109468
-0.0003831663
-0.0003535727
-0.0003213614
-0.0002863148
-0.0002500857
-0.0002125148
-0.0001703451
-0.0001291153
-8.7662e-05
-4.20023e-05
6.446362e-06
5.497734e-05
0.000104646
0.0001561124
0.0002098643
0.0002650469
0.0003219678
0.0003837043
0.0004463498
0.0005095472
0.000578707
0.0006517079
0.000724645
0.0007972366
0.000880088
0.0009688474
0.001060389
0.001158643
0.001264122
0.001371088
0.001489479
0.00161667
0.001748551
0.001893059
0.002056921
0.002216222
0.00239512
0.00260628
0.002806197
0.002999137
0.00321177
0.003457154
0.003720658
0.003989118
0.004275909
0.004551235
0.004849292
0.005127394
0.005432271
0.005757051
0.006096663
0.006462685
0.006808413
0.007129583
0.007479555
0.007921892
0.008502537
0.009239287
0.01014289
0.01126993
0.0126935
0.01462866
0.01733771
0.02087115
0.0254226
0.03110106
0.03770474
0.04427883
0.04808166
0.04353435
0.02183339
0.001087979
0.002231036
0.002613901
0.003058288
0.003445048
0.003790682
0.00411612
0.004425537
0.004716944
0.004987446
0.00523393
0.005453225
0.005642544
0.005799918
0.005924377
0.006015787
0.0060746
0.00610175
0.00609866
0.006067182
0.006009424
0.005927581
0.005823864
0.005700458
0.005559499
0.005403066
0.005233159
0.005051675
0.004860414
0.00466112
0.004455456
0.004244964
0.00403111
0.003815264
0.003598651
0.003382378
0.003167446
0.002954737
0.002745066
0.002539145
0.002337582
0.002140909
0.00194959
0.001764085
0.001584761
0.001411923
0.001245836
0.001086763
0.0009349701
0.0007905774
0.0006536796
0.0005244168
0.0004027885
0.0002888128
0.0001824899
8.3751e-05
-7.472152e-06
-9.12526e-05
-0.0001678436
-0.0002373608
-0.0002997519
-0.0003551559
-0.000404081
-0.0004465455
-0.000482369
-0.0005124461
-0.000536661
-0.000555227
-0.0005683398
-0.0005765182
-0.0005798518
-0.0005786233
-0.0005725251
-0.0005621885
-0.0005487764
-0.000530908
-0.000509286
-0.0004854793
-0.0004586698
-0.0004285407
-0.0003961802
-0.0003601955
-0.000323133
-0.000284435
-0.000241606
-0.0001988863
-0.0001532825
-0.0001081907
-6.053793e-05
-9.527049e-06
4.282726e-05
9.554752e-05
0.0001490126
0.0002050401
0.000263088
0.000324041
0.0003857774
0.0004499201
0.000516381
0.0005868342
0.0006597182
0.0007359189
0.0008141659
0.0008947612
0.0009803352
0.001074207
0.001174042
0.001277431
0.001384392
0.001510335
0.001638136
0.001770856
0.001914519
0.00206495
0.002229371
0.00241177
0.00260812
0.002818222
0.003021715
0.003224815
0.003456949
0.003723828
0.003994107
0.004266537
0.004556948
0.004836484
0.005115121
0.005413515
0.005730156
0.006072875
0.006416643
0.006777296
0.007106323
0.007442057
0.007859868
0.008389351
0.009107011
0.01000874
0.0111155
0.01250533
0.01438272
0.01699004
0.02045642
0.02501311
0.03077176
0.03760952
0.04472849
0.04917897
0.04373213
0.02428613
0.005473247
0.002386578
0.002796433
0.003272698
0.003688129
0.004060525
0.004412383
0.004748197
0.005065778
0.005361876
0.005632902
0.005875135
0.006085265
0.006260946
0.006400984
0.006505107
0.006573644
0.00660744
0.006607923
0.006577063
0.006517151
0.006430585
0.006319778
0.006187136
0.006035025
0.005865741
0.005681501
0.00548441
0.005276459
0.005059563
0.00483556
0.004606161
0.004372963
0.004137472
0.003901062
0.003664943
0.00343023
0.00319789
0.002968798
0.002743741
0.002523386
0.002308312
0.002099016
0.001895964
0.001699595
0.001510246
0.001328212
0.001153745
0.0009871222
0.0008285652
0.0006781244
0.0005359153
0.0004020133
0.0002763883
0.0001590374
4.991496e-05
-5.106409e-05
-0.000143957
-0.0002289609
-0.0003063223
-0.0003760226
-0.0004380699
-0.0004929797
-0.0005408845
-0.0005816675
-0.0006159913
-0.0006439437
-0.0006660206
-0.0006819606
-0.0006924459
-0.0006977542
-0.0006979392
-0.0006929115
-0.0006832444
-0.0006700918
-0.0006531563
-0.0006310745
-0.0006060944
-0.0005787098
-0.0005479656
-0.0005144669
-0.0004777081
-0.0004387026
-0.000398987
-0.0003547414
-0.000309988
-0.0002631715
-0.0002166295
-0.000167308
-0.0001142766
-6.040335e-05
-6.062755e-06
4.895028e-05
0.0001061677
0.0001654264
0.0002279608
0.0002913979
0.0003567335
0.0004245895
0.0004958555
0.0005709991
0.0006484076
0.0007274511
0.0008076843
0.0008965052
0.0009913969
0.001093872
0.00119993
0.001309552
0.001432529
0.001561771
0.001698592
0.001845817
0.001997782
0.002162567
0.002347381
0.002545768
0.002750631
0.00295924
0.003174714
0.003405753
0.003664973
0.00392594
0.004214143
0.004524072
0.004786702
0.005065198
0.005361036
0.005660623
0.00599713
0.006350155
0.006714516
0.007055528
0.007390514
0.007769861
0.008284352
0.008969291
0.009853622
0.0109523
0.01232293
0.0141495
0.0166405
0.02002909
0.02456935
0.03039311
0.03756779
0.04550838
0.05029711
0.043559
0.02618909
0.01149161
0.002538113
0.00297435
0.003481929
0.003925763
0.004324954
0.004703572
0.005066476
0.005411323
0.005734542
0.006032073
0.006299605
0.006533225
0.006730098
0.006888702
0.007008516
0.007089626
0.007132676
0.007139021
0.007110711
0.007050223
0.006960176
0.00684322
0.006702021
0.006539218
0.006357371
0.006158936
0.005946253
0.005721529
0.005486865
0.005244281
0.004995677
0.004742807
0.00448732
0.004230743
0.003974429
0.003719599
0.003467334
0.003218571
0.002974164
0.002734844
0.00250124
0.002273892
0.002053267
0.001839851
0.001634028
0.001436124
0.001246411
0.001065137
0.0008925808
0.0007288512
0.0005739891
0.0004281037
0.0002911663
0.0001631593
4.403362e-05
-6.628275e-05
-0.0001678624
-0.0002608513
-0.0003455268
-0.0004219952
-0.0004902206
-0.0005504955
-0.000603285
-0.0006485199
-0.0006863273
-0.00071742
-0.0007421436
-0.0007602964
-0.0007723361
-0.0007787234
-0.0007796603
-0.0007750918
-0.0007649144
-0.0007509128
-0.0007335988
-0.0007110308
-0.0006842147
-0.0006548027
-0.0006224017
-0.0005872743
-0.000549145
-0.0005069646
-0.000464337
-0.0004198953
-0.0003703749
-0.0003217193
-0.0002730757
-0.0002213662
-0.0001664264
-0.000109936
-5.290074e-05
4.414587e-06
6.33197e-05
0.0001243872
0.0001885193
0.0002546258
0.0003220995
0.000391382
0.000462703
0.0005375189
0.0006178054
0.0006989025
0.0007783147
0.0008678038
0.0009668346
0.001068
0.001172756
0.001285499
0.001408848
0.001538752
0.001679308
0.001827247
0.001977981
0.002144152
0.002331183
0.002516099
0.002721304
0.002952834
0.003160004
0.003386774
0.003640925
0.003906317
0.004196306
0.00449952
0.004772247
0.005056962
0.005329846
0.005633348
0.005963951
0.006308406
0.006663518
0.007011118
0.007346021
0.007701043
0.008193567
0.008869349
0.009715946
0.01079936
0.01215059
0.01392843
0.01633807
0.01960521
0.02395544
0.0296009
0.03658441
0.04395881
0.04712244
0.04312896
0.02977417
0.01947337
0.002684726
0.00314657
0.003684677
0.004156418
0.004582202
0.004987678
0.005378127
0.005751134
0.006102875
0.006428868
0.006724204
0.006984285
0.007205647
0.007386278
0.007525264
0.007622325
0.007677784
0.007692814
0.007669473
0.007610389
0.007518412
0.007396462
0.007247509
0.007074516
0.00688035
0.006667739
0.006439275
0.006197407
0.005944446
0.005682604
0.005413978
0.005140511
0.004864008
0.004586158
0.004308485
0.004032325
0.003758889
0.003489207
0.003224186
0.002964632
0.002711221
0.002464538
0.002225085
0.001993338
0.001769749
0.001554675
0.001348418
0.001151218
0.0009633395
0.0007849991
0.0006161881
0.0004569724
0.000307402
0.0001674038
3.693072e-05
-8.40893e-05
-0.0001957397
-0.0002981035
-0.000391451
-0.0004760236
-0.0005518341
-0.0006189539
-0.0006779327
-0.0007288439
-0.0007716034
-0.0008072429
-0.0008358165
-0.0008573652
-0.0008722723
-0.0008809524
-0.0008836942
-0.0008809505
-0.0008722104
-0.0008583213
-0.0008409834
-0.0008190026
-0.0007922396
-0.0007622176
-0.00072907
-0.000692642
-0.0006532347
-0.000610556
-0.0005663865
-0.0005204462
-0.0004698069
-0.0004197454
-0.0003681585
-0.0003148465
-0.0002589254
-0.0002007851
-0.0001416259
-8.245742e-05
-2.201896e-05
4.017026e-05
0.0001046913
0.000172033
0.0002417423
0.0003130303
0.000386113
0.000462391
0.0005420143
0.0006243663
0.0007045541
0.0007957494
0.000896091
0.0009949829
0.001104096
0.001225705