/*--------------------------------*- C++ -*----------------------------------*\
| =========                 |                                                 |
| \\      /  F ield         | OpenFOAM: The Open Source CFD Toolbox           |
|  \\    /   O peration     | Version:  2106                                  |
|   \\  /    A nd           | Website:  www.openfoam.com                      |
|    \\/     M anipulation  |                                                 |
\*---------------------------------------------------------------------------*/
FoamFile
{
    version     2.0;
    format      ascii;
    arch        "LSB;label=32;scalar=64";
    class       volScalarField;
    location    "80";
    object      p;
}
// * * * * * * * * * * * * * * * * * * * * * * * * * * * * * * * * * * * * * //

dimensions      [ 0 2 -2 0 0 0 0 ];

internalField   nonuniform List<scalar> 
300000
(
0.0001925643
0.0002822536
0.0003891339
0.0004930199
0.0005949368
0.0006962877
0.0007969958
0.0008965996
0.000994622
0.001090566
0.001183903
0.001274093
0.001360612
0.001442971
0.001520737
0.001593548
0.001661115
0.001723233
0.00177977
0.001830663
0.001875914
0.001915578
0.001949754
0.001978582
0.002002227
0.002020882
0.002034754
0.002044066
0.00204905
0.002049945
0.002046988
0.002040428
0.002030501
0.002017441
0.00200149
0.001982871
0.001961812
0.001938527
0.001913209
0.001886084
0.001857333
0.001827142
0.00179568
0.001763136
0.001729659
0.001695439
0.001660589
0.001625269
0.001589615
0.001553787
0.001517914
0.001482028
0.001446353
0.00141094
0.001375889
0.001341313
0.001307294
0.001273884
0.001241177
0.001209198
0.001178138
0.00114791
0.00111862
0.001090303
0.001063059
0.00103682
0.001011683
0.0009876521
0.0009647941
0.0009430121
0.0009224646
0.0009031212
0.0008849737
0.0008679589
0.000852112
0.0008375522
0.0008241196
0.0008119543
0.0008009536
0.0007912912
0.0007825099
0.0007749775
0.0007690507
0.0007639917
0.0007600388
0.0007573503
0.0007560935
0.0007553832
0.0007560227
0.0007579465
0.0007616089
0.0007661076
0.0007719054
0.0007789981
0.0007874405
0.0007961595
0.000806943
0.0008203684
0.0008336304
0.0008494745
0.0008668879
0.0008861436
0.0009073086
0.0009312979
0.0009547941
0.0009817681
0.001011232
0.001042228
0.001077407
0.001118176
0.001162296
0.001205232
0.001254552
0.001307849
0.001367686
0.001435344
0.001506094
0.001584383
0.001663954
0.001754482
0.001868414
0.001981795
0.002092859
0.002224354
0.002394669
0.002545485
0.002711942
0.002915956
0.003150995
0.003416661
0.003672188
0.003991148
0.004345341
0.004757537
0.005219276
0.005811493
0.006374794
0.00720789
0.008108166
0.00928018
0.01093629
0.01327884
0.01649216
0.02129231
0.02905662
0.04111819
0.06055624
0.08711333
0.09563591
0.07429695
0.0003927651
0.000480716
0.0005833777
0.0006720101
0.0007496399
0.0008207938
0.000886568
0.000946876
0.001001543
0.001050402
0.001093247
0.001129847
0.001160002
0.001183594
0.001200605
0.001211115
0.001215297
0.001213408
0.001205778
0.001192786
0.001174847
0.001152399
0.001125889
0.001095762
0.001062456
0.001026392
0.000987978
0.0009476026
0.0009056358
0.0008624222
0.0008182826
0.0007735151
0.000728393
0.000683172
0.0006380861
0.000593338
0.0005491116
0.0005055717
0.0004628689
0.0004211373
0.000380475
0.0003409781
0.0003027382
0.0002658318
0.0002303116
0.0001962282
0.0001636111
0.0001325017
0.0001029265
7.489864e-05
4.841264e-05
2.346093e-05
7.849681e-08
-2.179419e-05
-4.2181e-05
-6.107824e-05
-7.850675e-05
-9.451336e-05
-0.0001091456
-0.0001224448
-0.0001344192
-0.000145157
-0.0001546857
-0.0001630434
-0.0001702649
-0.0001764313
-0.0001815775
-0.000185747
-0.0001889887
-0.0001913879
-0.0001929123
-0.0001937217
-0.000193755
-0.0001930609
-0.000191801
-0.0001899854
-0.000187569
-0.0001845744
-0.0001811462
-0.0001773408
-0.0001731177
-0.0001683292
-0.0001633762
-0.0001583795
-0.0001529607
-0.0001471787
-0.0001410953
-0.0001350067
-0.0001285277
-0.0001218061
-0.0001150523
-0.0001085609
-0.0001016977
-9.462738e-05
-8.74137e-05
-8.002859e-05
-7.203839e-05
-6.403292e-05
-5.649915e-05
-4.851454e-05
-3.996214e-05
-3.129211e-05
-2.309038e-05
-1.417087e-05
-4.602086e-06
5.941848e-06
1.556261e-05
2.690787e-05
3.888508e-05
5.149711e-05
6.466761e-05
7.795947e-05
9.276836e-05
0.0001076498
0.0001247051
0.0001437901
0.0001622824
0.0001817908
0.0002029327
0.0002267382
0.0002576629
0.0002854037
0.0003097023
0.0003399121
0.0003844231
0.0004240903
0.0004722649
0.0005278744
0.0005891389
0.0006665347
0.0007546465
0.0008664815
0.0009986223
0.001152187
0.00135195
0.001636711
0.001989787
0.002490835
0.00316039
0.004171734
0.005713795
0.008067223
0.01177923
0.01792202
0.02836243
0.04639487
0.07785245
0.1359417
0.1486539
0.1228947
0.0005743618
0.0006822668
0.0008147241
0.0009362309
0.001049178
0.001158583
0.001265219
0.001368308
0.001467055
0.001560777
0.001648802
0.001730456
0.001805139
0.001872392
0.00193191
0.001983525
0.002027202
0.002063025
0.002091179
0.002111927
0.002125593
0.002132541
0.002133166
0.002127879
0.002117101
0.002101252
0.002080753
0.002056021
0.002027466
0.001995487
0.00196047
0.001922781
0.001882775
0.001840787
0.001797131
0.001752108
0.001705995
0.001659055
0.001611529
0.001563629
0.001515567
0.001467534
0.001419705
0.001372235
0.001325276
0.001278961
0.001233429
0.001188777
0.001145103
0.001102499
0.001061062
0.001020866
0.0009819342
0.0009443457
0.000908121
0.0008732937
0.0008399206
0.0008080294
0.0007775974
0.0007486153
0.0007210897
0.0006950795
0.0006705289
0.0006474247
0.0006257784
0.0006055913
0.0005867954
0.0005693857
0.0005533429
0.0005386318
0.0005252599
0.0005130776
0.0005022483
0.0004928033
0.0004844556
0.0004771179
0.0004709484
0.0004659551
0.0004620896
0.0004593598
0.0004576527
0.000456912
0.0004570506
0.0004581708
0.0004604188
0.0004636497
0.0004677107
0.0004727934
0.0004786468
0.0004853708
0.0004928295
0.0005015651
0.0005114488
0.0005222157
0.0005340182
0.0005470553
0.0005609854
0.000575491
0.0005914161
0.000608974
0.0006278451
0.0006488503
0.0006711065
0.0006951755
0.000721595
0.0007493126
0.0007775519
0.0008096078
0.0008450048
0.0008837851
0.0009253879
0.0009694515
0.001015785
0.001066289
0.001120645
0.001183176
0.001251704
0.001324127
0.001399269
0.001479973
0.001571562
0.001675099
0.001784673
0.001901281
0.002029738
0.002173875
0.00232596
0.002491264
0.00268029
0.002898125
0.003143956
0.00341274
0.003721244
0.004074413
0.004509564
0.005055622
0.005742596
0.006608148
0.00775943
0.009367854
0.01171268
0.01522786
0.02064966
0.0292689
0.04329402
0.06641453
0.1038504
0.1632007
0.1713223
0.149403
0.0007485984
0.0008818126
0.001041426
0.001183958
0.001312364
0.001432773
0.001546287
0.001652162
0.001749624
0.00183804
0.001916795
0.001985303
0.002043087
0.00208986
0.002125536
0.002150213
0.002164156
0.002167775
0.002161592
0.002146216
0.002122316
0.002090592
0.002051761
0.002006538
0.001955621
0.001899692
0.001839409
0.001775404
0.001708285
0.001638625
0.001566963
0.001493799
0.001419596
0.001344782
0.001269759
0.001194892
0.00112051
0.001046902
0.0009743287
0.0009030242
0.0008332043
0.0007650458
0.0006987048
0.0006343264
0.0005720413
0.0005119539
0.0004541534
0.0003987032
0.0003456651
0.000295089
0.0002470127
0.000201444
0.0001583687
0.0001178178
7.976635e-05
4.415873e-05
1.097235e-05
-1.980128e-05
-4.821567e-05
-7.43506e-05
-9.826943e-05
-0.0001199943
-0.0001396187
-0.0001572252
-0.0001728621
-0.0001865815
-0.0001984945
-0.0002086773
-0.0002171915
-0.0002241167
-0.0002295081
-0.0002334975
-0.0002361701
-0.0002374982
-0.0002375905
-0.0002365787
-0.0002345763
-0.000231565
-0.0002275584
-0.0002225979
-0.0002170023
-0.0002106306
-0.0002034566
-0.0001957691
-0.0001874933
-0.000178662
-0.0001693947
-0.0001595499
-0.0001493312
-0.0001385878
-0.0001274548
-0.0001160536
-0.0001042888
-9.214693e-05
-7.967287e-05
-6.671286e-05
-5.320597e-05
-3.955236e-05
-2.538397e-05
-1.096429e-05
4.760955e-06
2.115598e-05
3.775844e-05
5.45051e-05
7.267658e-05
9.132599e-05
0.0001121099
0.0001320885
0.0001552894
0.0001810436
0.0002082316
0.0002364601
0.0002635949
0.0002952085
0.0003291796
0.0003675857
0.000408699
0.0004528972
0.0004985458
0.0005483518
0.0006041571
0.0006662773
0.0007370792
0.000810061
0.0008903926
0.0009875555
0.001091644
0.001208301
0.001348089
0.001512537
0.001709647
0.001944273
0.002217193
0.002543346
0.002971231
0.003527905
0.00425832
0.005226149
0.006551983
0.008432476
0.01119579
0.01535493
0.02174567
0.03177941
0.04774292
0.07336409
0.113203
0.1720719
0.1815442
0.1648369
0.0009187489
0.001078911
0.001267911
0.001434959
0.00158517
0.001726604
0.001860943
0.001987516
0.00210549
0.002214107
0.002312593
0.002400192
0.002476272
0.002540417
0.002592455
0.002632434
0.002660599
0.002677354
0.002683233
0.002678865
0.002664943
0.002642197
0.00261137
0.002573198
0.002528403
0.002477687
0.002421733
0.002361204
0.002296736
0.00222893
0.002158358
0.002085555
0.002011024
0.001935234
0.001858622
0.001781594
0.001704517
0.00162772
0.001551505
0.001476147
0.00140189
0.001328955
0.001257537
0.001187819
0.001119963
0.001054106
0.0009903666
0.0009288541
0.0008696595
0.0008128527
0.0007584888
0.0007066175
0.0006572657
0.0006104452
0.0005661718
0.0005244248
0.0004851646
0.0004483923
0.0004141058
0.000382246
0.0003527304
0.0003255098
0.0003005635
0.000277824
0.0002572052
0.0002386754
0.0002221742
0.0002076085
0.0001949104
0.0001839972
0.0001747927
0.0001672935
0.0001613699
0.0001568805
0.0001538734
0.0001523711
0.000152145
0.0001530707
0.0001551711
0.0001584887
0.0001628567
0.0001683016
0.0001747411
0.0001820007
0.0001900925
0.0001990855
0.0002090003
0.0002198358
0.0002313157
0.0002436501
0.000256743
0.0002702737
0.0002846755
0.0002998103
0.0003162593
0.000333698
0.0003519576
0.0003709505
0.0003909718
0.0004114177
0.0004337422
0.0004579801
0.0004832376
0.0005094684
0.0005376304
0.000568491
0.0006019042
0.0006356807
0.0006736852
0.0007130095
0.0007574312
0.0008034191
0.0008523752
0.0009051994
0.0009616976
0.00102281
0.001090064
0.001162556
0.001241139
0.001323139
0.001412773
0.001511845
0.001618373
0.001733451
0.001860578
0.002001244
0.002157031
0.002326863
0.002514394
0.002731097
0.002985314
0.003281942
0.003625354
0.004030925
0.004529838
0.00517483
0.006016691
0.007131295
0.008639341
0.01075274
0.01381845
0.01838329
0.02532359
0.03607112
0.05287954
0.07927417
0.1192669
0.1767211
0.1884005
0.1754084
0.001086585
0.001274288
0.001493793
0.001686056
0.001857825
0.002018691
0.002170511
0.002312373
0.002443193
0.002561983
0.002667757
0.002759589
0.002836746
0.002898787
0.002945583
0.002977295
0.002994321
0.002997256
0.002986851
0.00296397
0.002929547
0.002884559
0.002829987
0.002766798
0.002695935
0.002618316
0.002534824
0.002446315
0.002353604
0.002257462
0.002158612
0.002057736
0.001955466
0.001852388
0.00174904
0.001645916
0.001543465
0.001442091
0.001342148
0.001243953
0.001147788
0.001053907
0.0009625316
0.0008738565
0.0007880532
0.0007052719
0.000625636
0.0005492489
0.0004761941
0.0004065334
0.0003403066
0.000277544
0.0002182586
0.000162429
0.0001100335
6.105694e-05
1.543391e-05
-2.690658e-05
-6.599747e-05
-0.0001018953
-0.0001347174
-0.0001645795
-0.0001915102
-0.0002155971
-0.000236994
-0.0002557838
-0.000272036
-0.0002858742
-0.0002974208
-0.0003067903
-0.0003140823
-0.000319383
-0.0003227372
-0.0003243585
-0.0003243681
-0.0003228494
-0.0003197575
-0.0003153234
-0.0003096391
-0.0003027503
-0.0002946944
-0.0002856602
-0.0002757028
-0.0002649601
-0.0002532742
-0.0002409531
-0.0002279855
-0.0002142856
-0.0002000503
-0.0001853355
-0.0001700447
-0.0001542977
-0.0001378526
-0.0001214388
-0.0001039056
-8.568447e-05
-6.71552e-05
-4.819793e-05
-2.874159e-05
-8.599219e-06
1.274573e-05
3.506129e-05
5.811999e-05
8.26628e-05
0.0001075503
0.0001343321
0.0001626584
0.0001924001
0.000224949
0.0002584903
0.000298017
0.0003359556
0.000378297
0.0004215557
0.0004695642
0.0005215919
0.0005788902
0.0006404601
0.0007094171
0.000781226
0.0008570228
0.0009435865
0.001038796
0.001143676
0.001258983
0.001385958
0.001533423
0.001700215
0.001882081
0.002096545
0.002350743
0.002655349
0.003020251
0.003458037
0.003997683
0.004692154
0.005606383
0.006834305
0.008494039
0.0108012
0.01411258
0.01899357
0.02633299
0.03754796
0.05483478
0.08158811
0.1215797
0.1783812
0.1927006
0.182789
0.00125304
0.00146854
0.001719303
0.001937729
0.002132152
0.002313918
0.002485307
0.002645384
0.002792996
0.002927061
0.003046477
0.003150213
0.003237474
0.00330781
0.003361133
0.003397678
0.003417945
0.003422648
0.003412668
0.003389006
0.00335273
0.003304938
0.003246728
0.003179167
0.003103293
0.003020106
0.002930568
0.002835604
0.002736098
0.002632883
0.00252674
0.002418402
0.002308549
0.002197813
0.002086775
0.001975963
0.00186586
0.001756896
0.001649454
0.001543871
0.001440448
0.001339458
0.001241143
0.001145716
0.00105336
0.0009642419
0.0008785009
0.0007962479
0.0007175751
0.000642558
0.0005712449
0.0005036615
0.0004398268
0.0003797353
0.0003233535
0.0002706586
0.0002216127
0.0001761268
0.0001341337
9.56001e-05
6.042853e-05
2.84772e-05
-3.042533e-07
-2.600695e-05
-4.876451e-05
-6.869762e-05
-8.588851e-05
-0.0001004312
-0.0001124554
-0.0001221001
-0.0001294433
-0.0001346785
-0.0001378461
-0.0001389393
-0.0001382267
-0.0001359489
-0.000131987
-0.0001264233
-0.0001194665
-0.0001110806
-0.0001015247
-9.093113e-05
-7.914758e-05
-6.649302e-05
-5.285331e-05
-3.820377e-05
-2.294137e-05
-6.977374e-06
9.895609e-06
2.750914e-05
4.559718e-05
6.432055e-05
8.4021e-05
0.0001040847
0.0001248686
0.000146728
0.000169528
0.0001929875
0.0002169751
0.0002421656
0.0002683446
0.0002966762
0.000325789
0.0003564592
0.0003884007
0.0004219857
0.0004585108
0.0004971004
0.0005382299
0.0005819591
0.0006306574
0.0006815873
0.0007345134
0.000790167
0.000851431
0.0009173872
0.0009885946
0.001066015
0.001149072
0.001239287
0.001333925
0.001438626
0.001553202
0.001677404
0.001811305
0.001959533
0.002132001
0.00232016
0.002527314
0.002764904
0.003043989
0.003375196
0.003772908
0.004247526
0.004827569
0.005567238
0.006528701
0.007815011
0.009565272
0.01198327
0.01541521
0.02043349
0.02792608
0.03928842
0.05666695
0.08333194
0.1230129
0.1794277
0.1961582
0.1889626
0.001418575
0.001661999
0.001944509
0.002189818
0.002407696
0.002611166
0.002802851
0.002981656
0.003146205
0.003295167
0.003427182
0.003540997
0.003635662
0.003710651
0.003765874
0.003801622
0.003818492
0.003817333
0.003799184
0.003765228
0.003716721
0.003654946
0.003581184
0.003496682
0.003402648
0.003300249
0.003190613
0.003074818
0.002953897
0.002828831
0.002700538
0.002569874
0.00243764
0.002304579
0.002171373
0.002038639
0.001906936
0.001776765
0.001648571
0.001522749
0.001399644
0.001279568
0.001162795
0.001049573
0.0009401115
0.0008345907
0.0007331699
0.0006359778
0.0005431125
0.0004546536
0.0003706572
0.0002911464
0.0002161257
0.0001455905
7.950185e-05
1.780264e-05
-3.95482e-05
-9.263308e-05
-0.0001415661
-0.0001864084
-0.0002272497
-0.0002642412
-0.0002974833
-0.0003271148
-0.0003532267
-0.0003759865
-0.000395538
-0.0004119775
-0.0004254457
-0.0004361219
-0.000444109
-0.0004495642
-0.0004527149
-0.0004535241
-0.0004521356
-0.0004488465
-0.0004438141
-0.0004369492
-0.0004284511
-0.0004184818
-0.000407124
-0.0003946772
-0.0003809271
-0.0003661315
-0.0003508047
-0.0003341549
-0.0003167993
-0.0002989259
-0.000280379
-0.0002610337
-0.0002412214
-0.0002209051
-0.0002000437
-0.0001784944
-0.0001567199
-0.0001338981
-0.000110273
-8.619078e-05
-6.125461e-05
-3.587418e-05
-1.009209e-05
1.800233e-05
4.743497e-05
7.751921e-05
0.0001092805
0.0001428791
0.0001777554
0.0002146538
0.0002550299
0.0002981037
0.0003436802
0.0003945176
0.0004469076
0.0005002225
0.0005590965
0.0006241982
0.0006943208
0.0007699365
0.000851825
0.0009412699
0.00103562
0.001141997
0.001257022
0.001382829
0.001520695
0.001675491
0.001847647
0.002044485
0.002268125
0.002518922
0.002807664
0.003156962
0.003578197
0.004087785
0.004713085
0.005494271
0.006502964
0.007849124
0.009676494
0.01219005
0.01572263
0.02083008
0.02839884
0.03980989
0.05717938
0.08371769
0.123211
0.1797061
0.198049
0.1935208
0.001583331
0.001854736
0.002169334
0.002442133
0.002684256
0.002910376
0.003123456
0.003322256
0.003505187
0.003670688
0.003817166
0.003943175
0.004047648
0.004130033
0.004190287
0.004228793
0.004246277
0.004243737
0.00422239
0.0041836
0.00412881
0.00405948
0.003977048
0.003882915
0.003778428
0.003664884
0.003543533
0.003415571
0.003282135
0.003144306
0.003003099
0.002859453
0.002714246
0.002568289
0.002422324
0.002277024
0.002132993
0.001990767
0.001850825
0.00171359
0.001579434
0.001448683
0.001321628
0.001198531
0.00107962
0.0009650892
0.0008550996
0.000749795
0.0006492818
0.0005536371
0.0004629204
0.0003771601
0.0002963521
0.0002204817
0.0001495153
8.33855e-05
2.203144e-05
-3.461172e-05
-8.666906e-05
-0.000134248
-0.0001774353
-0.0002163534
-0.0002511401
-0.0002819907
-0.0003089541
-0.0003322206
-0.0003519601
-0.0003682942
-0.0003813808
-0.0003914021
-0.0003984629
-0.0004027168
-0.000404423
-0.0004036217
-0.0004004181
-0.0003950871
-0.0003878012
-0.0003785929
-0.0003676522
-0.00035508
-0.0003409083
-0.000325627
-0.0003090252
-0.0002912271
-0.0002728745
-0.0002533743
-0.0002328603
-0.0002117542
-0.0001900504
-0.000167596
-0.0001445876
-0.0001210188
-9.683096e-05
-7.192977e-05
-4.655905e-05
-2.021211e-05
6.904094e-06
3.482491e-05
6.356354e-05
9.303255e-05
0.0001230108
0.0001553276
0.0001889453
0.0002239872
0.0002606698
0.0002991011
0.000339702
0.0003828323
0.000428492
0.000477333
0.0005289802
0.0005869453
0.000648273
0.0007086408
0.0007740878
0.0008473156
0.0009266543
0.001011374
0.001102462
0.001201623
0.001307887
0.001422893
0.00154973
0.001684613
0.001837126
0.002005472
0.00218638
0.002395921
0.002636785
0.002904721
0.00320917
0.003573608
0.004012208
0.004543954
0.005195084
0.006005591
0.007045302
0.008417766
0.01026952
0.01281259
0.01637427
0.02148128
0.02899831
0.04029538
0.05748396
0.08373559
0.1229585
0.1796478
0.1987991
0.1972106
0.001747198
0.002046578
0.002393484
0.002694264
0.002961341
0.003210998
0.003446518
0.003666476
0.003869012
0.004052262
0.004214319
0.004353461
0.004468448
0.004558652
0.004624036
0.004665035
0.00468246
0.004677428
0.00465131
0.004605648
0.004542068
0.004462204
0.004367663
0.004260006
0.004140742
0.004011321
0.003873141
0.003727547
0.003575816
0.003419159
0.00325872
0.003095562
0.002930672
0.002764963
0.002599272
0.002434357
0.002270899
0.002109499
0.001950691
0.00179495
0.001642694
0.00149429
0.001350063
0.001210303
0.001075269
0.000945185
0.0008202318
0.0007005643
0.0005863133
0.0004775646
0.0003743791
0.0002767953
0.000184814
9.840988e-05
1.754872e-05
-5.783639e-05
-0.0001278289
-0.0001924958
-0.0002519463
-0.0003063305
-0.0003557615
-0.0004003444
-0.000440232
-0.0004756418
-0.0005066768
-0.0005335346
-0.000556356
-0.0005753085
-0.0005905946
-0.0006023936
-0.0006108201
-0.0006161217
-0.0006184775
-0.0006179359
-0.0006147471
-0.0006091683
-0.0006012973
-0.0005913238
-0.000579467
-0.0005657391
-0.0005503367
-0.0005336935
-0.0005155647
-0.0004964319
-0.000476291
-0.0004554367
-0.00043337
-0.0004105029
-0.0003872073
-0.0003633683
-0.0003387971
-0.0003135604
-0.0002879758
-0.0002618399
-0.0002348914
-0.0002071486
-0.0001792618
-0.0001502934
-0.0001203306
-9.000729e-05
-5.876541e-05
-2.57161e-05
8.575671e-06
4.412519e-05
8.195648e-05
0.0001208425
0.0001619652
0.0002066494
0.0002528447
0.0003029404
0.0003554658
0.0004131036
0.0004769155
0.0005406541
0.0006081009
0.0006818771
0.000762448
0.0008506556
0.0009460168
0.001049296
0.001158985
0.001278911
0.001412755
0.001552889
0.001713051
0.001891452
0.00208266
0.00230501
0.002556528
0.002835852
0.003161638
0.003546574
0.004003825
0.004556727
0.005234902
0.006078519
0.007149237
0.008547551
0.01042206
0.01297578
0.01653077
0.02160242
0.02901745
0.04011099
0.05697685
0.08279788
0.1216561
0.1784195
0.1979669
0.1989012
0.001909855
0.002237128
0.00261645
0.002945589
0.00323825
0.003512303
0.00377133
0.004013701
0.00423725
0.004439762
0.004618967
0.004772841
0.004899949
0.004999593
0.005071747
0.005116901
0.005135948
0.005130133
0.005100999
0.005050283
0.00497981
0.004891406
0.004786854
0.004667887
0.004536183
0.004393355
0.004240956
0.004080477
0.003913337
0.003740876
0.003564357
0.003384959
0.003203773
0.003021804
0.002839972
0.002659106
0.002479951
0.002303162
0.002129314
0.001958918
0.001792423
0.001630228
0.001472681
0.00132009
0.001172731
0.001030848
0.0008946441
0.0007642774
0.0006398855
0.0005215718
0.0004093924
0.0003033841
0.0002035526
0.0001098666
2.228055e-05
-5.926923e-05
-0.0001348805
-0.0002046422
-0.0002686446
-0.0003270442
-0.0003799942
-0.0004276185
-0.000470063
-0.0005075082
-0.00054019
-0.0005682771
-0.0005918886
-0.0006112406
-0.0006265357
-0.000637979
-0.0006457352
-0.0006499499
-0.0006509363
-0.0006488181
-0.0006436941
-0.0006359234
-0.0006256683
-0.0006130873
-0.0005984979
-0.0005820057
-0.0005636788
-0.0005439938
-0.000523043
-0.0005009602
-0.0004774776
-0.0004537995
-0.0004289558
-0.0004028774
-0.000376337
-0.0003494195
-0.0003217591
-0.0002933123
-0.0002645419
-0.0002353024
-0.0002052371
-0.0001741998
-0.0001430372
-0.0001108587
-7.759203e-05
-4.391319e-05
-9.64303e-06
2.629362e-05
6.478899e-05
0.0001041437
0.0001449722
0.0001883302
0.0002336057
0.0002810207
0.000332001
0.0003869995
0.0004443805
0.0005061775
0.000574229
0.0006441536
0.0007194158
0.0007997253
0.0008835267
0.0009764252
0.001079419
0.001190766
0.001308235
0.001435838
0.00157778
0.001726636
0.001895011
0.002082285
0.002285485
0.002516667
0.002778817
0.003073803
0.003412822
0.003809765
0.004282949
0.004853136
0.005548676
0.006408146
0.007493343
0.00890227
0.0107705
0.01330344
0.0168162
0.02177623
0.02898311
0.0397274
0.05605579
0.0811116
0.1191627
0.1753191
0.1959277
0.1976455
0.002070805
0.002425789
0.0028375
0.003195254
0.003514028
0.00381326
0.004096828
0.004362881
0.004608908
0.004832294
0.00503034
0.005200651
0.005341547
0.005452221
0.005532621
0.005583243
0.005605016
0.005599277
0.005567717
0.005512262
0.005434929
0.005337729
0.005222627
0.005091532
0.004946298
0.004788715
0.0046205
0.004443303
0.004258696
0.004068163
0.003873099
0.003674813
0.003474517
0.003273323
0.003072251
0.002872218
0.002674045
0.002478455
0.002286082
0.002097482
0.001913148
0.001733517
0.001558977
0.001389864
0.001226482
0.0010691
0.000917951
0.0007732183
0.0006350439
0.0005035492
0.0003788055
0.0002608456
0.0001496803
4.528489e-05
-5.23934e-05
-0.0001434198
-0.0002278886
-0.0003059092
-0.0003775759
-0.0004430238
-0.0005024313
-0.000555966
-0.0006037604
-0.0006459827
-0.0006829608
-0.0007148165
-0.0007417083
-0.0007638929
-0.0007815597
-0.0007948828
-0.0008040925
-0.0008093481
-0.0008109698
-0.0008092015
-0.0008039981
-0.0007958522
-0.0007850312
-0.0007715972
-0.0007558789
-0.0007382727
-0.0007188278
-0.0006977218
-0.0006753382
-0.0006517016
-0.0006266021
-0.0006010273
-0.0005746153
-0.000546888
-0.0005184352
-0.000489667
-0.000460273
-0.000430248
-0.0003997196
-0.0003687942
-0.0003372467
-0.0003046714
-0.0002717411
-0.0002383819
-0.000203849
-0.0001686355
-0.0001329041
-9.593216e-05
-5.622185e-05
-1.50816e-05
2.726852e-05
7.187651e-05
0.0001188336
0.0001678171
0.000220708
0.0002768863
0.0003364043
0.0004009451
0.0004709422
0.0005432171
0.0006219333
0.0007080461
0.0007960574
0.0008905669
0.0009968342
0.001114134
0.001239258
0.001372943
0.00152015
0.00167952
0.001857289
0.002049325
0.002266074
0.002508887
0.00278205
0.003094142
0.003447897
0.003857692
0.004346274
0.004935587
0.005651067
0.006530398
0.007631974
0.009047306
0.01090581
0.01340884
0.01684987
0.02166272
0.02859687
0.0388591
0.05437673
0.07817969
0.114639
0.1688846
0.1929261
0.1923036
0.002229393
0.002611785
0.003055706
0.003442184
0.00378747
0.004112565
0.004421649
0.004712648
0.004982692
0.005228718
0.005447536
0.005636311
0.005793062
0.005916832
0.006007505
0.006065535
0.006091839
0.00608781
0.006055281
0.005996367
0.005913287
0.005808253
0.005683431
0.005540935
0.005382823
0.005211082
0.005027619
0.00483426
0.004632743
0.00442471
0.004211701
0.00399516
0.003776429
0.003556736
0.003337202
0.003118838
0.00290254
0.002689099
0.002479208
0.002273467
0.002072407
0.001876498
0.001686161
0.001501763
0.00132363
0.001152049
0.0009872762
0.0008295213
0.0006789367
0.0005356431
0.0003997306
0.0002712293
0.0001501465
3.646081e-05
-6.988237e-05
-0.0001689549
-0.0002608476
-0.0003456865
-0.0004235824
-0.0004946528
-0.0005590765
-0.0006170698
-0.000668776
-0.0007143769
-0.0007542076
-0.0007884032
-0.0008171674
-0.0008407095
-0.0008592688
-0.0008730352
-0.000882256
-0.0008871124
-0.0008879089
-0.0008849408
-0.0008782354
-0.0008682742
-0.0008555164
-0.0008399767
-0.0008219335
-0.000801872
-0.0007798002
-0.0007561927
-0.0007309935
-0.0007040872
-0.0006763412
-0.0006473394
-0.0006176916
-0.0005869842
-0.0005553554
-0.000523289
-0.0004908235
-0.0004578495
-0.0004242552
-0.0003902559
-0.0003556874
-0.0003206915
-0.0002849152
-0.0002484803
-0.0002112674
-0.0001735123
-0.0001348062
-9.485435e-05
-5.32892e-05
-9.785399e-06
3.592772e-05
8.351689e-05
0.0001330157
0.0001851557
0.0002420455
0.0003009984
0.0003636289
0.0004314702
0.0005038452
0.0005819803
0.0006660425
0.0007553132
0.0008503081
0.000950789
0.001060488
0.001182585
0.001315918
0.001456968
0.001609725
0.001779123
0.001962347
0.002164713
0.002391905
0.002644897
0.002929988
0.003251083
0.003619767
0.00404281
0.004542653
0.005144977
0.005872149
0.006766599
0.007878858
0.009291103
0.01113029
0.0135858
0.01692765
0.02155787
0.02814657
0.03776499
0.05214088
0.07402195
0.1074733
0.1572041
0.189398
0.1837583
0.002384841
0.002794197
0.003269969
0.003685103
0.004057137
0.004408631
0.004744092
0.005061247
0.005356866
0.005627412
0.005869144
0.006078707
0.006253739
0.006393059
0.006496412
0.006564129
0.006597034
0.006596528
0.006564561
0.006503431
0.00641556
0.006303365
0.006169229
0.006015494
0.005844438
0.005658265
0.005459086
0.005248917
0.005029674
0.004803169
0.0045711
0.004335058
0.004096526
0.003856863
0.003617304
0.003378961
0.003142819
0.002909743
0.002680493
0.002455722
0.002236006
0.002021853
0.001813718
0.001612006
0.001417071
0.001229227
0.001048749
0.0008758743
0.0007107833
0.0005535956
0.0004044087
0.0002632705
0.0001301805
5.119643e-06
-0.0001119617
-0.0002211391
-0.0003225029
-0.0004161769
-0.0005022943
-0.0005809707
-0.000652371
-0.0007167385
-0.0007742493
-0.0008250947
-0.0008695968
-0.000907942
-0.0009403429
-0.0009669315
-0.0009880233
-0.00100387
-0.001014696
-0.0010207
-0.001022195
-0.001019546
-0.001012922
-0.001002534
-0.0009891038
-0.0009728535
-0.0009538547
-0.0009324986
-0.0009089651
-0.0008835978
-0.0008566705
-0.0008278575
-0.0007980645
-0.0007671202
-0.0007354435
-0.0007026674
-0.0006689833
-0.0006349968
-0.0006006294
-0.0005657708
-0.0005303511
-0.0004945514
-0.0004582382
-0.0004216057
-0.0003842592
-0.000346173
-0.0003074129
-0.0002679333
-0.000227764
-0.0001865538
-0.0001437758
-9.83047e-05
-5.095157e-05
-1.603759e-06
4.969293e-05
0.0001037816
0.0001620694
0.000223267
0.0002884826
0.0003588636
0.0004339661
0.00051522
0.0006027755
0.0006958947
0.0007949902
0.0009010733
0.001016281
0.001142474
0.001280805
0.00142815
0.001590721
0.00176911
0.001957325
0.002169804
0.002407305
0.002670341
0.002968161
0.003303846
0.003686989
0.004125566
0.004638959
0.005252231
0.005996484
0.006903838
0.008026221
0.00944047
0.01126288
0.01366917
0.01690541
0.02134116
0.02755186
0.03643803
0.04944122
0.06880593
0.09768522
0.1394396
0.1824006
0.1684927
0.002536286
0.002971999
0.003479058
0.003922581
0.004321395
0.004699632
0.005062163
0.005406564
0.005729284
0.006026312
0.006293316
0.00652634
0.006722531
0.006880378
0.006999378
0.007079619
0.007121726
0.007127025
0.007097548
0.007035775
0.006944347
0.006825921
0.006683139
0.006518612
0.006334884
0.006134404
0.005919511
0.005692428
0.005455266
0.005210023
0.004958573
0.004702671
0.004443954
0.004183931
0.003923965
0.003665281
0.00340896
0.00315595
0.002907077
0.002663055
0.002424505
0.002191973
0.001965946
0.001746864
0.001535111
0.001331026
0.001134904
0.0009470004
0.0007675209
0.0005965985
0.0004343218
0.0002807512
0.0001358867
-2.943373e-07
-0.0001278412
-0.0002468285
-0.0003573517
-0.0004595322
-0.0005535163
-0.0006394361
-0.0007174433
-0.0007877695
-0.0008506621
-0.0009063128
-0.0009549878
-0.0009969759
-0.001032443
-0.001061536
-0.001084584
-0.001101911
-0.001113769
-0.001120323
-0.001121839
-0.001118864
-0.001111672
-0.00110032
-0.001085458
-0.001067607
-0.001046834
-0.001023366
-0.0009974552
-0.0009692959
-0.0009396255
-0.0009083217
-0.0008752674
-0.0008416198
-0.0008071439
-0.0007714825
-0.0007350254
-0.0006981861
-0.000660997
-0.0006234477
-0.0005854404
-0.0005470121
-0.0005081198
-0.0004688652
-0.0004291709
-0.000388873
-0.0003479819
-0.000306314
-0.0002635671
-0.000220066
-0.000175371
-0.0001276226
-7.769682e-05
-2.656977e-05
2.691585e-05
8.377533e-05
0.0001444309
0.0002086751
0.0002773109
0.0003502626
0.0004279672
0.0005127487
0.0006043167
0.000699926
0.000804561
0.0009187879
0.001036856
0.001167891
0.001312374
0.001467584
0.001637211
0.001821577
0.002019497
0.002241429
0.002485576
0.00276077
0.003069975
0.003417298
0.003812349
0.004265929
0.004793422
0.005418572
0.006176446
0.007097154
0.008225051
0.009641272
0.01145005
0.01381136
0.0169501
0.02119198
0.02701849
0.03515405
0.04665743
0.06297441
0.08573975
0.1159693
0.1472741
0.1197404
0.002682812
0.003144108
0.00368167
0.004153086
0.004578478
0.004983556
0.005373614
0.005746157
0.00609738
0.006422848
0.006717632
0.006977092
0.007197744
0.007377587
0.007515726
0.007611882
0.007666356
0.007680296
0.007655739
0.007595315
0.007501891
0.007378394
0.007227776
0.007052969
0.006856826
0.006642071
0.006411292
0.006166945
0.005911351
0.005646705
0.005375075
0.005098399
0.004818491
0.004537022
0.004255509
0.0039753
0.003697592
0.003423422
0.00315369
0.002889173
0.002630543
0.002378386
0.002133222
0.001895521
0.0016657
0.001444122
0.001231105
0.001026919
0.0008317882
0.0006458686
0.0004692395
0.0003019594
0.0001440434
-4.542574e-06
-0.0001438479
-0.0002739477
-0.0003949401
-0.0005069419
-0.0006101072
-0.0007045878
-0.0007905297
-0.0008681354
-0.0009376871
-0.0009994013
-0.001053519
-0.001100386
-0.001140132
-0.001172961
-0.001199209
-0.001219223
-0.001233292
-0.001241633
-0.001244437
-0.001242197