/*--------------------------------*- C++ -*----------------------------------*\
| =========                 |                                                 |
| \\      /  F ield         | OpenFOAM: The Open Source CFD Toolbox           |
|  \\    /   O peration     | Version:  2106                                  |
|   \\  /    A nd           | Website:  www.openfoam.com                      |
|    \\/     M anipulation  |                                                 |
\*---------------------------------------------------------------------------*/
FoamFile
{
    version     2.0;
    format      ascii;
    arch        "LSB;label=32;scalar=64";
    class       volScalarField;
    location    "50";
    object      p;
}
// * * * * * * * * * * * * * * * * * * * * * * * * * * * * * * * * * * * * * //

dimensions      [ 0 2 -2 0 0 0 0 ];

internalField   nonuniform List<scalar> 
300000
(
0.0001954765
0.0002889189
0.0003990571
0.0005030179
0.0006062124
0.0007101577
0.0008135059
0.0009156231
0.001016213
0.001114932
0.001211278
0.001304818
0.001395058
0.001481532
0.001563787
0.001641546
0.00171448
0.001782442
0.001845314
0.001903184
0.001956171
0.002004495
0.002048079
0.002086955
0.002121404
0.002152374
0.002180157
0.002204186
0.002225063
0.002243236
0.002258176
0.002272283
0.002286005
0.002297128
0.002307269
0.002315419
0.002324605
0.002336938
0.002344633
0.002355053
0.002367242
0.002384908
0.00240221
0.002423701
0.002441477
0.0024712
0.002503616
0.002542056
0.002577972
0.002618599
0.002682817
0.002733396
0.002804048
0.002883252
0.002972072
0.003070844
0.00318509
0.003310774
0.003459972
0.003597047
0.003778543
0.00397081
0.004192148
0.004422501
0.004700754
0.004997269
0.00533168
0.005692722
0.006118153
0.006555384
0.007059327
0.007597601
0.008196662
0.008849615
0.009534644
0.0102772
0.01100513
0.01176069
0.01248287
0.01328829
0.0139589
0.01450351
0.01510125
0.01556707
0.01592779
0.01612859
0.0163874
0.01636134
0.01616531
0.01568174
0.01527695
0.01473511
0.014214
0.01368419
0.01337364
0.01261955
0.01164834
0.01113835
0.01021592
0.009540776
0.008806297
0.008441578
0.00819893
0.00872936
0.008661417
0.009105227
0.009418308
0.008980865
0.00791416
0.007369112
0.008128775
0.007967983
0.008426707
0.007667144
0.006101913
0.006066629
0.006484542
0.008177119
0.008144645
0.005715894
0.006406383
0.007188389
0.006417023
0.004507415
0.007185291
0.007163853
0.005167376
0.004456411
0.005069445
0.006565074
0.005560617
0.0045865
0.003276214
0.002815812
0.002321234
0.004157217
0.002484023
0.003379125
0.003593852
0.003247343
0.002585948
0.002693253
0.001693916
0.002259472
0.001999124
0.001999212
0.001580228
0.001158043
0.001115565
0.003540055
0.0003974687
0.0004869735
0.0005901141
0.0006788697
0.0007592904
0.0008318793
0.0008971191
0.0009579956
0.00101464
0.00106516
0.001108938
0.001146553
0.001178253
0.001203628
0.001222402
0.001234776
0.001241129
0.001241664
0.001236602
0.001226251
0.001211152
0.001191831
0.00116875
0.001142377
0.00111323
0.001081733
0.001048002
0.001012282
0.0009752288
0.0009374146
0.0008992701
0.0008614771
0.0008234539
0.0007846496
0.0007463611
0.0007093606
0.0006742933
0.000640221
0.000606004
0.0005745733
0.0005455281
0.0005179905
0.0004907631
0.0004654005
0.0004415929
0.000421947
0.0004036642
0.0003878509
0.0003746157
0.0003648532
0.0003585701
0.0003474485
0.0003432332
0.0003442153
0.000350342
0.0003587833
0.0003670613
0.0003752353
0.0003874879
0.000399494
0.0004214175
0.000446894
0.0004800939
0.000515447
0.0005583872
0.000602005
0.0006469186
0.000692537
0.0007508592
0.0008089408
0.000903565
0.0009890494
0.001062193
0.001142668
0.001236541
0.001340145
0.001442503
0.001554245
0.001667111
0.001781559
0.001873421
0.002038378
0.002265163
0.002485191
0.00272963
0.002979719
0.003319764
0.003661208
0.004030665
0.004416869
0.004863236
0.005214041
0.005589726
0.005956922
0.006304611
0.006499496
0.006655272
0.006875788
0.007098413
0.007260091
0.007465421
0.007832736
0.008020553
0.007966766
0.007737259
0.007966544
0.00806573
0.008258146
0.008019293
0.007146429
0.006003663
0.005002405
0.004731409
0.004804687
0.005006337
0.005394571
0.005431443
0.005348912
0.00522889
0.003611438
0.002884949
0.003125995
0.003259785
0.002247307
0.003859914
0.004352936
0.004531469
0.004622421
0.004510146
0.004850486
0.004410743
0.003798661
0.003612302
0.003605086
0.003112989
0.002602267
0.002187775
0.002428067
0.002003477
0.001561261
0.001797181
0.001862093
0.001722852
0.001806452
0.001562846
0.001477309
0.001268547
0.0009837766
0.0009393319
0.002024108
0.0005811095
0.0006921831
0.0008271639
0.0009500416
0.001066181
0.001177156
0.001284101
0.001389685
0.001492691
0.001590014
0.001680734
0.001765462
0.001844082
0.001915703
0.00197979
0.002036386
0.00208579
0.002127991
0.002162855
0.00219053
0.002211592
0.002226789
0.002236781
0.00224192
0.002242331
0.002238269
0.002230478
0.002219695
0.002206255
0.002190591
0.002173165
0.002154289
0.00213473
0.002115075
0.002095393
0.002076115
0.002057219
0.002039522
0.00202393
0.002009628
0.001997713
0.001988407
0.001982906
0.001980931
0.001982954
0.001987951
0.001998385
0.002014309
0.002036274
0.002062286
0.002093124
0.002130824
0.002173206
0.002226326
0.002291559
0.002365995
0.002446081
0.002534104
0.002634264
0.002747741
0.002870038
0.003007318
0.003161116
0.00332922
0.003510468
0.00370824
0.003918774
0.004143569
0.004388318
0.004642517
0.004945884
0.005246113
0.005537022
0.005846401
0.006181493
0.006529214
0.006876498
0.007207727
0.007502957
0.007811585
0.008112026
0.008441339
0.00879289
0.009091547
0.009358971
0.009629183
0.009909789
0.01022998
0.01053249
0.01083194
0.01102837
0.01116259
0.01130956
0.01142853
0.01151458
0.01150048
0.0115156
0.01151791
0.01152891
0.01160068
0.01141468
0.01137453
0.01129653
0.01112287
0.01088213
0.01098923
0.01085823
0.01071395
0.01016502
0.009009855
0.007552979
0.006202904
0.005620842
0.006023523
0.006247987
0.006644245
0.00659518
0.006194427
0.005275973
0.004143428
0.003495882
0.002961045
0.002219116
0.002740594
0.003823304
0.004906816
0.005105322
0.005338375
0.00560559
0.005613657
0.005829988
0.005227309
0.005103184
0.004599686
0.004071919
0.003700919
0.003446543
0.003280914
0.002564683
0.001904138
0.001944947
0.002168543
0.002353
0.002395346
0.002216325
0.001959914
0.00167731
0.001432063
0.001457621
0.002677297
0.0007568863
0.0008931097
0.001053926
0.001196628
0.001328362
0.001451122
0.00156504
0.001672453
0.001772919
0.00186406
0.001944919
0.002015777
0.002076451
0.002126268
0.002165142
0.00219349
0.002211729
0.002220146
0.002218916
0.002208468
0.002189766
0.002163928
0.002131861
0.002094264
0.00205162
0.002004387
0.001953191
0.0018988
0.001841872
0.001783029
0.00172297
0.001662433
0.001602227
0.001542447
0.001482894
0.001424082
0.001366666
0.001311509
0.001258841
0.001208295
0.001160803
0.001116749
0.001076037
0.001038319
0.001004078
0.0009733364
0.0009470365
0.0009248552
0.0009073396
0.0008941583
0.0008865735
0.0008859023
0.0008877987
0.0008939804
0.0009089232
0.000933629
0.0009639413
0.0009979908
0.00103837
0.001088119
0.001144334
0.001209234
0.001287118
0.001378184
0.001481301
0.001598621
0.001727942
0.001868002
0.002022966
0.002189729
0.002394127
0.002626399
0.002866707
0.003126267
0.003414266
0.003739277
0.004087627
0.004447864
0.004803292
0.005220946
0.005661734
0.006150711
0.006708118
0.007235301
0.007747658
0.008268156
0.008802674
0.009390041
0.009962528
0.01049995
0.01096729
0.01130355
0.0116132
0.01190662
0.01214768
0.01225398
0.01236347
0.01244443
0.01260933
0.0126168
0.01256182
0.01240849
0.01231403
0.01218208
0.0120926
0.01173841
0.01199066
0.01162053
0.01098866
0.009652226
0.008113734
0.007069339
0.006032286
0.006023444
0.006425829
0.007158582
0.007059226
0.006334353
0.005141781
0.004321016
0.004053097
0.003037446
0.00249263
0.002131391
0.002511595
0.004278448
0.005149661
0.005465897
0.005692059
0.0054448
0.005386891
0.005711705
0.005937397
0.005260701
0.004607539
0.004294656
0.003815025
0.003169653
0.002585445
0.002199987
0.002117772
0.002327016
0.002591962
0.002755353
0.002718202
0.002491
0.00216209
0.001869725
0.001872504
0.003033845
0.0009286446
0.001092584
0.001283768
0.00145225
0.001607107
0.001751531
0.001886277
0.002014437
0.002136172
0.002249013
0.002351304
0.002442682
0.00252292
0.002591524
0.002648476
0.00269426
0.002729096
0.002753062
0.002766457
0.002769797
0.00276398
0.002750273
0.002729693
0.002702937
0.002670673
0.002633356
0.002591312
0.002545293
0.002496397
0.002445588
0.002393497
0.00234065
0.002287703
0.002235138
0.002183153
0.002132153
0.002082765
0.002035657
0.001991235
0.001949708
0.001911524
0.001877148
0.001846692
0.001820238
0.001798488
0.001782032
0.001771145
0.001765627
0.001766122
0.001773039
0.001785777
0.001805968
0.001834449
0.001867727
0.001907519
0.001959365
0.002022019
0.002091202
0.002166322
0.00225234
0.002351102
0.002457269
0.002574621
0.002708284
0.00285518
0.003014437
0.003185447
0.003366254
0.003562418
0.00377435
0.003995876
0.0042328
0.004500492
0.004786947
0.005078878
0.005397441
0.005739787
0.006090358
0.006430299
0.006811454
0.007219213
0.00767732
0.008197227
0.008715261
0.009196991
0.009668928
0.01015361
0.01071634
0.01126582
0.01178316
0.01223503
0.01254278
0.01287033
0.01310001
0.01332185
0.01347763
0.01359112
0.01363749
0.01384567
0.01384195
0.0136136
0.01343689
0.01328442
0.01317195
0.01296747
0.01266708
0.01265757
0.01221922
0.01212004
0.01067482
0.009284714
0.007686043
0.006626079
0.006261033
0.006554646
0.007172052
0.007681979
0.006957245
0.005957142
0.004677777
0.003859326
0.003706029
0.002575571
0.001512376
0.002551302
0.003659015
0.004481994
0.00534615
0.005265852
0.005019112
0.005018352
0.005492898
0.006009339
0.006127458
0.00539862
0.005002304
0.004369557
0.003581617
0.002956148
0.002604804
0.002544263
0.002704949
0.002936101
0.003105039
0.003103244
0.002901711
0.002561768
0.002211293
0.00212773
0.003383737
0.001097931
0.001289773
0.001511435
0.001704438
0.001880103
0.002043599
0.002195944
0.002339685
0.002474409
0.00259732
0.002706557
0.002801633
0.002882368
0.002948433
0.002999755
0.003036843
0.003060093
0.003069592
0.003065822
0.003049784
0.003022619
0.002985734
0.002940503
0.002887749
0.002828196
0.002762724
0.002691939
0.002616495
0.002537588
0.002456437
0.002373978
0.002290757
0.002207293
0.002124355
0.002042584
0.001962286
0.001883765
0.001807592
0.001734525
0.001665077
0.001599474
0.001538049
0.001481306
0.001429176
0.00138187
0.001340139
0.001304405
0.00127434
0.00124982
0.001231754
0.001220138
0.001214694
0.001218129
0.001230849
0.001248078
0.00127327
0.001310852
0.001357926
0.001409943
0.001471542
0.001549584
0.001634586
0.001728385
0.001838262
0.001965501
0.002107147
0.002262886
0.002431974
0.002618398
0.002824933
0.003057284
0.003298079
0.003562726
0.003858983
0.004199884
0.004551954
0.004939409
0.005349193
0.005769296
0.006196919
0.006680086
0.007214967
0.007829712
0.008428716
0.009018637
0.009577258
0.01012899
0.0107421
0.0113747
0.0119673
0.01247932
0.01282571
0.01322134
0.01344806
0.01368214
0.01389013
0.01404348
0.01416336
0.01429945
0.01432899
0.01423023
0.01402399
0.01368823
0.01364454
0.01353141
0.01343607
0.01320598
0.01269355
0.01248522
0.01103227
0.0100973
0.008188094
0.0073846
0.00650313
0.006566792
0.007066577
0.007750301
0.007212027
0.00674363
0.006186936
0.004668309
0.003742642
0.002426712
0.001564316
0.002815422
0.003632993
0.00362338
0.004853076
0.004690514
0.004620761
0.004557335
0.005205607
0.005427588
0.005466287
0.00519482
0.005431618
0.004989825
0.004139707
0.003395532
0.003010855
0.002982469
0.003096158
0.003278572
0.003440253
0.003439798
0.003233867
0.002887538
0.00251952
0.002400221
0.003666296
0.001265802
0.001485933
0.001739321
0.001958865
0.002157993
0.002343568
0.002516532
0.002679037
0.002830735
0.00296919
0.003092702
0.003200634
0.003292552
0.003368093
0.003427197
0.003470359
0.003498251
0.003511146
0.00350949
0.003494492
0.003467621
0.003430227
0.003383751
0.003329277
0.003267427
0.003199145
0.003125505
0.003047173
0.002965062
0.002880508
0.002794654
0.002708415
0.002622233
0.002536607
0.002452362
0.002370181
0.002290412
0.00221332
0.002139545
0.002069877
0.002004885
0.001944618
0.001889309
0.001839571
0.001795224
0.001756731
0.001725072
0.001700411
0.001681996
0.001670248
0.00166631
0.001669435
0.001680393
0.001702495
0.001733049
0.001768732
0.001814705
0.001873242
0.001937989
0.002011085
0.002100562
0.002197621
0.002304916
0.002422678
0.002558296
0.002709032
0.002872354
0.003047783
0.003237831
0.003436729
0.003673965
0.003930901
0.004179258
0.004450826
0.004773999
0.005120642
0.005498454
0.005901325
0.006284112
0.006708544
0.007183671
0.00768319
0.008283276
0.008891724
0.009454241
0.01000793
0.01055603
0.01112646
0.0117399
0.01238616
0.01293465
0.01327972
0.01360451
0.01386378
0.01408708
0.0142802
0.01445788
0.01462416
0.01469555
0.01478276
0.0145881
0.01451455
0.0142339
0.01407493
0.01395028
0.01369446
0.01363547
0.01340747
0.01313998
0.01206118
0.01068532
0.009070407
0.007908825
0.006967993
0.006785699
0.007058433
0.007495326
0.007713632
0.007136026
0.006909825
0.005589657
0.004301154
0.003147032
0.002087315
0.002191184
0.002625087
0.004334492
0.004908431
0.004698276
0.004249559
0.004109146
0.004716999
0.005007608
0.004432338
0.003859333
0.004824599
0.005376284
0.004677253
0.003967432
0.003444795
0.003390647
0.003437033
0.003584341
0.003734474
0.003701375
0.00345365
0.003081363
0.002698976
0.002567353
0.003763081
0.001432685
0.001681166
0.001966627
0.002213025
0.00243546
0.002642527
0.002835467
0.003016332
0.003184761
0.003338227
0.003474662
0.003592939
0.003692275
0.003772302
0.003833147
0.003875351
0.003899719
0.003906792
0.003897022
0.003871607
0.003832371
0.003780928
0.003718702
0.003647104
0.003567006
0.0034792
0.00338509
0.003285862
0.003182286
0.003075633
0.002967243
0.002858212
0.002749415
0.002641167
0.002534097
0.002429166
0.002327137
0.002228308
0.002132955
0.002041779
0.001955652
0.001875108
0.001799969
0.001730564
0.001667663
0.001611014
0.00156134
0.001519583
0.001485392
0.001457935
0.001438218
0.001427103
0.001423731
0.001430431
0.001449309
0.001475301
0.001508529
0.001554983
0.001611061
0.00167709
0.001757555
0.001845785
0.001951444
0.002064308
0.002195244
0.00234394
0.002507389
0.002685649
0.002882893
0.00308701
0.003312564
0.003586563
0.00386887
0.004158647
0.00448289
0.004856095
0.005248432
0.005675594
0.006111807
0.00654915
0.007055624
0.007561503
0.008143276
0.008835277
0.009429974
0.01001584
0.01058714
0.01119296
0.01179513
0.01242673
0.01301101
0.01347942
0.01378418
0.01408623
0.01430234
0.01453901
0.01471539
0.01477538
0.01491051
0.01510691
0.01498153
0.01479346
0.01460686
0.0143236
0.01408782
0.01402578
0.01389662
0.01353546
0.01328791
0.01293211
0.01149804
0.009718213
0.008572349
0.007530535
0.007076692
0.007168317
0.00758268
0.007916995
0.007843817
0.007712959
0.005818689
0.0047258
0.003940731
0.002632553
0.001503038
0.002974144
0.004070049
0.004189225
0.004567703
0.005207538
0.004204139
0.004202958
0.004090854
0.003395308
0.00316314
0.003949481
0.0048602
0.004849583
0.004301422
0.00375413
0.003814785
0.003783495
0.003874402
0.003987358
0.003863563
0.00350451
0.003047709
0.002616046
0.002440683
0.003548726
0.001598738
0.001875621
0.002193552
0.002467586
0.002714468
0.002944652
0.003159702
0.003361368
0.003548973
0.003719732
0.003871295
0.004002309
0.004111936
0.004199914
0.004266588
0.004312573
0.004338642
0.004345563
0.004333988
0.004305097
0.004260911
0.004203481
0.00413431
0.004054859
0.003966388
0.003869668
0.00376592
0.003656889
0.00354363
0.003427038
0.003308636
0.003189533
0.003070857
0.002953312
0.002837158
0.002723249
0.002612606
0.002506009
0.00240356
0.002305613
0.002212941
0.002126468
0.002046509
0.001972683
0.001905553
0.001845932
0.001793389
0.001749066
0.00171347
0.00168572
0.001665411
0.001654024
0.001651578
0.001658329
0.001677491
0.001707568
0.001743622
0.001790087
0.001848693
0.001919346
0.002000742
0.002088923
0.002199673
0.00231448
0.002446984
0.002594811
0.002757446
0.002936921
0.003137045
0.003341099
0.003556968
0.00381885
0.004098436
0.004388678
0.004712859
0.005068578
0.005450997
0.005875869
0.006310121
0.006738063
0.007250723
0.007746807
0.008274844
0.008937457
0.009583804
0.01016842
0.01071789
0.01128661
0.01189352
0.01254145
0.01313061
0.01361122
0.01396878
0.01425745
0.01444654
0.01469499
0.01491836
0.01506104
0.01514731
0.01533386
0.01519261
0.0150628
0.01482658
0.0146095
0.01440359
0.01428283
0.01414516
0.01387135
0.01353053
0.01327678
0.01205994
0.01030245
0.009256462
0.008151498
0.007456581
0.007329412
0.007636673
0.007962283
0.00780219
0.007667612
0.006735113
0.005266986
0.005458403
0.003540644
0.001909858
0.00311111
0.003615542
0.003129506
0.004204198
0.005889291
0.005139922
0.004377692
0.004084035
0.003345174
0.002552183
0.002686746
0.003794564
0.004370138
0.004211276
0.003877726
0.004204219
0.004095386
0.004082101
0.004236071
0.004019828
0.003518133
0.002988776
0.002529569
0.002331304
0.00329028
0.00176385
0.002069105
0.002419716
0.002721851
0.002993764
0.003247637
0.003485278
0.003708098
0.003915149
0.004103475
0.004270512
0.004414651
0.004534877
0.004630831
0.004702892
0.0047517
0.004777952
0.004782545
0.004766467
0.004731001
0.004678207
0.004610475
0.004529606
0.004436984
0.004334133
0.004222144
0.004102021
0.00397559
0.003844619
0.003710028
0.003573005
0.00343506
0.003297173
0.003160601
0.003025764
0.00289309
0.002763641
0.002638441
0.002518314
0.002403052
0.00229319
0.002189621
0.002093313
0.002004227
0.001921892
0.001847437
0.00178137
0.001723269
0.00167483
0.001635706
0.001604816
0.001582621
0.001570339
0.00156756
0.001576924
0.001600142
0.00163199
0.00167125
0.001723443
0.001790285
0.001868209
0.001953692
0.002059312
0.002174155
0.002309989
0.002457244
0.002618693
0.002799249
0.00300005
0.00320959
0.003445107
0.003707548
0.003979084
0.004279012
0.004619245
0.004978714
0.005365588
0.005797596
0.006239563
0.006690302
0.007198767
0.00768625
0.008266012
0.008861194
0.00955381
0.01016462
0.01072523
0.01128417
0.01188858
0.01251896
0.01311201
0.01364367
0.01404837
0.0143183
0.01450382
0.01483285
0.01505405
0.01519181
0.01534314
0.01544059
0.01538698
0.01529467
0.01511435
0.01479413
0.01474005
0.01458111
0.01422178
0.01405912
0.01355623
0.01339208
0.01257231
0.01091723
0.009926925
0.008751781
0.007867218
0.007547338
0.007679208
0.007992614
0.007938794
0.008132819
0.007274517
0.005726071
0.006254144
0.004503394
0.002441012
0.002507363
0.001924767
0.002713996
0.005140367
0.006164908
0.005637703
0.004805019
0.004169464
0.003381399
0.002599333
0.002658459
0.003357028
0.003989111
0.004466939
0.003642312
0.003619785
0.003972016
0.003879412
0.004293098
0.004143211
0.003542349
0.002965075
0.002405754
0.002156522
0.002917137
0.001927703
0.002261229
0.002644624
0.002975266
0.003272874
0.003551362
0.003812835
0.004058423
0.0042869
0.004495044
0.004679932
0.004839561
0.004972651
0.005078743
0.005158269
0.005211991
0.005240656
0.005245251
0.005227104
0.005187747
0.005129247
0.005054154
0.004964654
0.004862218
0.004748392
0.004624736
0.00449233
0.00435273
0.00420819
0.004060119
0.003909456
0.003757705
0.003606016
0.00345559
0.003307532
0.003162035
0.003019872
0.002882117
0.002749866
0.002623734
0.002503281
0.002389342
0.002282901
0.002184798
0.002094525
0.002011781
0.001938346
0.001873929
0.001818616
0.001774057
0.001738998
0.001712848
0.001696701
0.001690564
0.001695095
0.00171452
0.001746922
0.001785909
0.001835162
0.001899275
0.001978492
0.00206657
0.002162373
0.002279291
0.002416489
0.002563139
0.002724122
0.002903146
0.003104428
0.003316599
0.003533176
0.003795728
0.004080519
0.004369733
0.004703327
0.005064507
0.005445536
0.005870512
0.006310016
0.006744536
0.007245208
0.007751493
0.008308361
0.008845058
0.009563711
0.01019991
0.01074619
0.01129031
0.01189012
0.01252209
0.01311073
0.01366579
0.01412086
0.01443334
0.01459789
0.01487058
0.01508305
0.01524616
0.01541592
0.01562365
0.01570776
0.01551866
0.01534445
0.0150608
0.01471575
0.01458157
0.01450759
0.01415831
0.01366302
0.01336782
0.01271884
0.01153598
0.01079056
0.009515285
0.00831462
0.007842885
0.007782604
0.008036764
0.008124351
0.00847159
0.007967109
0.00643664
0.006552445
0.004772752
0.002909282
0.002334631
0.001486268
0.002015105
0.004263179
0.006104019
0.006409718
0.005346817
0.004392779
0.00356946
0.002932369
0.002584242
0.002704978
0.003700364
0.003678629
0.001990492
0.003477366
0.003921245
0.003807955
0.003800578
0.00425183
0.003720014
0.003139253
0.002317399
0.001946232
0.002575439
0.002089799
0.002451394
0.002867538
0.003226952
0.00355078
0.00385463
0.004140888
0.004410369
0.004661488
0.004890664
0.005094544
0.005270711
0.005417633
0.005534793
0.005622647
0.005682041
0.005713748
0.005718752
0.005698568
0.005655032
0.005590268
0.005506859
0.005407314
0.005293413
0.005166657
0.005028932
0.004881708
0.004726337
0.004565025
0.00439994
0.004232096
0.004062651
0.00389323
0.003724713
0.003558666
0.00339574
0.003236247
0.003081227
0.002931794
0.002789128
0.002653122
0.00252383
0.002402126
0.002289115
0.002185345
0.002089861
0.002003067
0.001926842
0.00186031
0.001804468
0.001759708
0.001725031
0.0017005
0.001686848
0.001683841
0.001694127
0.001720441
0.00175763
0.001802904
0.001860919
0.001937365
0.002023825
0.002114635
0.002235339
0.002367912
0.002512285
0.002673936
0.002855324
0.003054651
0.003273424
0.003494165
0.0037477
0.004043947
0.004328203
0.004657326
0.00502822
0.005413515
0.005825316
0.006281313
0.006729602
0.007194243
0.007727144
0.008280338
0.008796086
0.009475851
0.01014967
0.0107201
0.0112589
0.01184185
0.01245047
0.01307761
0.01364517
0.01412452
0.0144576
0.01463042
0.01488688
0.0151662
0.01532663
0.01548793
0.01569396
0.01585688
0.0156875
0.0154643
0.01523613
0.014929
0.01467044
0.01462163
0.01427065
0.01374911
0.01320033
0.01242864
0.01172586
0.01171203
0.01072438
0.008983307
0.008123635
0.007952969
0.008249272
0.008490337
0.008689641
0.00846947
0.007301885
0.006530666
0.004804525
0.003961279
0.002170057
0.001478381
0.001956529
0.003071666
0.005006742
0.006118177
0.005872554
0.004905003
0.003861246
0.00289987
0.002068038
0.002285426
0.00396958
0.003969602
0.002248807
0.00316708
0.003169645
0.002782878
0.003352228
0.003709278
0.003608572
0.003597848
0.002568706
0.002034163
0.002563603
0.002249484
0.002638827
0.003087529
0.003475831
0.003826284
0.004156176
0.00446819
0.004762852
0.005038219
0.005290329
0.005515359
0.005710433
0.005873708
0.006004543
0.006103325
0.006170891
0.006207991
0.006215577
0.006195271
0.006149245
0.006079815
0.005989601
0.005881347
0.005757247
0.005618928
0.00546835
0.005307514
0.00513785
0.004961269
0.004780345
0.004596659
0.004411213
0.004225542
0.004040851
0.003858419
0.0036797
0.003504932
0.00333484
0.003170444
0.00301299
0.002863549
0.00272128
0.00258692
0.00246134
0.002345748
0.00224003
0.002143004
0.002056552
0.001981304
0.001916474
0.001863974
0.001822569
0.001791957
0.001772639
0.001764289
0.001767727
0.001788174
0.001823366
0.001867127
0.001920221
0.001993103
0.002077309
0.002167268
0.002286606
0.002416456
0.00256059
0.002715689
0.0028957
0.003096107
0.003316989
0.003537353
0.003784046
0.004077985
0.004364623
0.00468114
0.005050102
0.005438028
0.005847386
0.006287182
0.006710561
0.007218269
0.007733321
0.008224799
0.008824576
0.009414825
0.01010228
0.01070441
0.01123925
0.01178227
0.01238973
0.01303723
0.01362604
0.01411586
0.01444016
0.01471185
0.01493133
0.01518191
0.01541431
0.01562107
0.01571871
0.01581141
0.01584716
0.01569992
0.01537101
0.01507613
0.01486982
0.01468603
0.01409841
0.01374019
0.01317892
0.01252066
0.0121101
0.01172902
0.01109048
0.009995961
0.008508303
0.008123217
0.008582995
0.008692545
0.008698107
0.009000674
0.008352049
0.006604495
0.005482958
0.00417732
0.002748556
0.001966641
0.002303037
0.003671604
0.003792122
0.004522072
0.00496758
0.00504924
0.00487484
0.002953707
0.001656962
0.002070367
0.004005699
0.004285457
0.003319698
0.003490407
0.002563308
0.002688463
0.003272946
0.00336267
0.003176838
0.003322669
0.003027126
0.002752066
0.001855081
0.002405982
0.002822607
0.003303495
0.003720623
0.00409794
0.004454402
0.004793018
0.005114047
0.005415191
0.005692057
0.005940276
0.006156419
0.00633824
0.006484888
0.006596619
0.006674169
0.006718227
0.006729709
0.00671032
0.006662504
0.006588866
0.006492102
0.006375106
0.006240461
0.00609009
0.00592593
0.005750374
0.005565226
0.005372182
0.005173778
0.004972365
0.004769028
0.004565056
0.004362184
0.004161265
0.003964167
0.003771708
0.003584162
0.003402558
0.003227924
0.003061693
0.00290405
0.002754505
0.00261399
0.002483624
0.002364471
0.002255354
0.002155919
0.002069076
0.001993762
0.001930191
0.001879549
0.001840715
0.001813685
0.001798445
0.001794368
0.001805898
0.001835879
0.001877215
0.001926454
0.001993828
0.002073844
0.002162716
0.002277012
0.00240471
0.002553446
0.002704357
0.002881274
0.003079993
0.00329772
0.003521812
0.00376566
0.004056189
0.004367278
0.004664204
0.00501931
0.005409236
0.005815673
0.00625763
0.006696671
0.007174738
0.007708937
0.008180082
0.008755112
0.009351408
0.01003466
0.01064276
0.01117796
0.01172938
0.01231773
0.01296805
0.01358612
0.01411099
0.01444483
0.01470782
0.01493536
0.01518501
0.01543815
0.01566484
0.01583307
0.01590606
0.01593452
0.01573613
0.01546593
0.01507126
0.0148684
0.01477464
0.01437261
0.01387127
0.01320554
0.01254018
0.01223359
0.01189417
0.01114559
0.01037642
0.009544759
0.008635909
0.008278179
0.008463649
0.008808617
0.009365887
0.008075299
0.006227507
0.006025973
0.00442989
0.00309268
0.002789799
0.002544225
0.0031177
0.003350866
0.003658389
0.004453748
0.005526099
0.004781877
0.003348523
0.001771706
0.002176449
0.00420787
0.004839382
0.004338355
0.003523274
0.002973807
0.003103993
0.003442793
0.003781797
0.003783979
0.003867049
0.004020867
0.00334168
0.002807519
0.002558427
0.003001712
0.003514208
0.003959894
0.004364109
0.00474748
0.005113379
0.005461858
0.005790298
0.006093878
0.006367651
0.006607561
0.00681087
0.006976418
0.00710424
0.007194837
0.00724873
0.00726674
0.007250606
0.007202949
0.007126701
0.007024741
0.006900105
0.006755736
0.006593975
0.006416853
0.006226915
0.00602651
0.00581736
0.005601756
0.005382516
0.005161277
0.004939242
0.004718113
0.004499099
0.004283679
0.004073502
0.003868818
0.00367038
0.003479058
0.003296243
0.003123275
0.002959022
0.002804278
0.002659756
0.002526867
0.002405987
0.002295177
0.002196272
0.002110617
0.002037066
0.001977252
0.001930019
0.001895571
0.001873488
0.001863245
0.001867084
0.001889405
0.001927074
0.00197403
0.002034915
0.002114661
0.002202388
0.002302946
0.002429971
0.002577806
0.002732006
0.002904937
0.003101725
0.003318277
0.003540889
0.003769481
0.004055985
0.004380811
0.00468941
0.005022371
0.005402332
0.005810196
0.006254234
0.006697016
0.007133333
0.007673927
0.008193388
0.008666202
0.009312847
0.009985375
0.01060243
0.01114124
0.01166577
0.01224704
0.01289299
0.01352683
0.01407978
0.01446161
0.0147266
0.01494401
0.01519076
0.01547709
0.0157023
0.01580737
0.0159644
0.01611194
0.01587061
0.01546256
0.01517485
0.01493629
0.01461474
0.0142616
0.01396895
0.01334407
0.01271148
0.01237035
0.01194347
0.01134397
0.01102634
0.009799703
0.008425216
0.008675131
0.008627364
0.009051743
0.009553976
0.008501538
0.006589226
0.005823294
0.004396621
0.003472172
0.002205314
0.002482036
0.003264054
0.003521137
0.003757084
0.004588981
0.005575344
0.004250573
0.002534784
0.002240556
0.002582229
0.004861487
0.005411509
0.004559376
0.003770637
0.003905972
0.004109671
0.004104941
0.003897086
0.003573822
0.003436867
0.003435796
0.003020261
0.00313604
0.002705908
0.003175059
0.003718362
0.00419211
0.004623023
0.005033393
0.005427022
0.005803835
0.006160964
0.006493202
0.006795013
0.007061636
0.007289696
0.007477556
0.007624877
0.007731782
0.007798498
0.007825671
0.007814988
0.00776919
0.007691529
0.007585178
0.007453376
0.007299411
0.007126105
0.006935759
0.006730932
0.006514469
0.006288385
0.006054759
0.005816487
0.005575998
0.005334519
0.005093617
0.004855142
0.004619989
0.0043903
0.004166889
0.003950063
0.003740828
0.003540113
0.003349558
0.003169365
0.00299891
0.002839101
0.002691009
0.00255611
0.002432995
0.00232088
0.002223342
0.002139107
0.002067941
0.002011314
0.001968238
0.001938487
0.001921171
0.001916336
0.001929785
0.001962308
0.002007038
0.002061794
0.002136175
0.002221512
0.002316072
0.002443069
0.002585051
0.002739965
0.002909668
0.003100037
0.003314377
0.00355156
0.003782659
0.004041143
0.004358731
0.004678362
0.005012126
0.005389359
0.005790722
0.006217397
0.006667857
0.007124056
0.007636414
0.008156148
0.008634769
0.009260808
0.009894807
0.0105343
0.0110994
0.0116309
0.01218755
0.01282
0.01345698
0.01403926
0.01447748
0.01475737
0.01494551
0.01515201
0.01542431
0.01568687
0.01587373
0.01599933
0.01614647
0.01588182
0.01552553
0.01532553
0.01493114
0.0145176
0.01444816
0.01402889
0.0132706
0.01271676
0.01243756
0.01203036
0.01143872
0.01118336
0.01006737
0.008732345
0.008913441
0.008715982
0.009127304
0.009629469
0.008839764
0.00692784
0.006166456
0.00500636
0.00316473
0.002344257
0.002894111
0.002736936
0.003581764
0.004021597
0.004292191
0.004465041
0.004228422
0.0026139
0.001859819
0.002666797
0.004680742
0.005491183
0.004922074
0.004241347
0.004706909
0.004883651
0.004587666
0.004016501
0.003604261
0.003128974
0.00300367
0.002973364
0.003256627
0.002847508
0.003341559
0.003914643
0.004415713
0.004872858
0.005310036
0.005731543
0.006137291
0.006524275
0.006887001
0.0072194
0.007515973
0.007772539
0.007986727
0.008157573
0.00828465
0.008367767
0.008407311
0.008404863
0.00836327
0.008286077
0.008176834
0.008039064
0.007876395
0.007692139
0.007488985
0.007269554
0.007036996
0.006793841
0.006542119
0.006284579
0.006024239
0.005762751
0.00550166
0.005242962
0.004987749
0.004737887
0.004495029
0.004259395
0.004031863
0.003813051
0.00360459
0.003407868
0.003221411
0.003046335
0.002883114
0.002733306
0.002597546
0.002473222
0.002362587
0.002266981
0.002185148
0.002118602
0.002065966
0.002027819
0.002003121
0.001991631
0.001996362
0.002020337
0.002060808
0.002111376
0.002180336
0.002263396
0.002353442
0.002473484
0.00261382
0.002766881
0.002928884
0.003116463
0.003328912
0.003564584
0.003806187
0.004062704
0.004356561