/*--------------------------------*- C++ -*----------------------------------*\
| =========                 |                                                 |
| \\      /  F ield         | OpenFOAM: The Open Source CFD Toolbox           |
|  \\    /   O peration     | Version:  2106                                  |
|   \\  /    A nd           | Website:  www.openfoam.com                      |
|    \\/     M anipulation  |                                                 |
\*---------------------------------------------------------------------------*/
FoamFile
{
    version     2.0;
    format      ascii;
    arch        "LSB;label=32;scalar=64";
    class       volScalarField;
    location    "160";
    object      p;
}
// * * * * * * * * * * * * * * * * * * * * * * * * * * * * * * * * * * * * * //

dimensions      [ 0 2 -2 0 0 0 0 ];

internalField   nonuniform List<scalar> 
300000
(
0.0001924347
0.0002820329
0.0003888
0.0004925938
0.0005944103
0.0006956478
0.0007962409
0.000895726
0.000993617
0.001089416
0.001182597
0.001272619
0.001358954
0.001441112
0.001518657
0.001591226
0.001658529
0.001720357
0.001776576
0.001827121
0.001871991
0.001911238
0.00194496
0.001973291
0.001996395
0.002014461
0.002027693
0.002036311
0.002040542
0.002040621
0.002036785
0.002029272
0.002018318
0.002004159
0.001987023
0.001967135
0.001944712
0.001919965
0.001893098
0.001864306
0.001833778
0.001801696
0.001768232
0.001733554
0.001697822
0.001661191
0.001623806
0.001585809
0.001547334
0.001508508
0.001469452
0.001430281
0.001391101
0.001352014
0.001313112
0.001274483
0.001236208
0.001198361
0.001161008
0.001124213
0.001088029
0.001052508
0.001017695
0.0009836267
0.0009503389
0.0009178604
0.0008862156
0.0008554244
0.0008255023
0.0007964609
0.0007683076
0.0007410459
0.0007146756
0.0006891929
0.0006645907
0.0006408583
0.000617982
0.0005959449
0.0005747275
0.0005543081
0.0005346631
0.0005157675
0.0004975951
0.0004801194
0.0004633138
0.000447152
0.0004316079
0.0004166562
0.0004022717
0.0003884307
0.0003751112
0.0003622928
0.0003499569
0.0003380871
0.0003266696
0.0003156931
0.0003051496
0.000295034
0.0002853446
0.0002760831
0.0002672547
0.0002588682
0.0002509365
0.0002434758
0.0002365058
0.0002300495
0.0002241333
0.0002187869
0.0002140434
0.0002099396
0.0002065158
0.0002038153
0.0002018849
0.0002007739
0.0002005355
0.0002012259
0.0002029055
0.0002056388
0.0002094954
0.0002145501
0.0002208843
0.0002285867
0.0002377544
0.0002484946
0.0002609258
0.0002751797
0.000291403
0.0003097585
0.0003304286
0.0003536168
0.0003795503
0.0004084815
0.0004406892
0.0004764802
0.0005161894
0.0005601805
0.000608845
0.0006626017
0.0007218968
0.000787205
0.0008590379
0.0009379658
0.001024661
0.001119942
0.001224567
0.001338327
0.001453138
0.001555277
0.001523671
0.001436855
0.0003925115
0.0004803813
0.0005829529
0.0006715232
0.0007490895
0.0008201819
0.000885892
0.0009461254
0.001000716
0.001049498
0.001092256
0.001128759
0.001158811
0.001182294
0.001199184
0.001209561
0.001213598
0.001211553
0.001203752
0.001190575
0.001172437
0.001149773
0.001123029
0.001092648
0.001059069
0.001022712
0.0009839858
0.0009432763
0.0009009501
0.000857351
0.0008128005
0.0007675966
0.0007220141
0.0006763046
0.0006306967
0.0005853966
0.0005405891
0.0004964384
0.0004530896
0.0004106701
0.0003692908
0.0003290477
0.0002900236
0.0002522885
0.0002159016
0.0001809114
0.000147357
0.0001152683
8.466691e-05
5.556616e-05
2.797191e-05
1.882811e-06
-2.27091e-05
-4.581793e-05
-6.74633e-05
-8.766981e-05
-0.0001064664
-0.0001238859
-0.0001399642
-0.0001547402
-0.0001682548
-0.000180551
-0.0001916734
-0.0002016677
-0.0002105805
-0.0002184592
-0.0002253517
-0.0002313059
-0.0002363701
-0.0002405924
-0.0002440211
-0.0002467042
-0.0002486897
-0.0002500252
-0.0002507584
-0.0002509366
-0.0002506069
-0.000249816
-0.0002486093
-0.0002470311
-0.0002451236
-0.0002429271
-0.0002404792
-0.0002378145
-0.0002349641
-0.0002319561
-0.0002288163
-0.0002255682
-0.0002222328
-0.0002188272
-0.0002153644
-0.0002118549
-0.0002083061
-0.0002047229
-0.0002011068
-0.0001974561
-0.0001937661
-0.0001900289
-0.0001862336
-0.0001823662
-0.0001784098
-0.0001743442
-0.0001701462
-0.000165791
-0.0001612516
-0.0001564994
-0.0001515041
-0.0001462339
-0.0001406546
-0.00013473
-0.0001284226
-0.0001216937
-0.0001145033
-0.0001068102
-9.85715e-05
-8.974272e-05
-8.027696e-05
-7.01249e-05
-5.923416e-05
-4.754819e-05
-3.500524e-05
-2.153689e-05
-7.067263e-06
8.488114e-06
2.522422e-05
4.324721e-05
6.267577e-05
8.364295e-05
0.0001062973
0.000130804
0.0001573451
0.0001861206
0.000217348
0.0002512616
0.0002881084
0.0003281423
0.0003716143
0.0004187587
0.0004697687
0.0005247556
0.0005836723
0.0006461718
0.0007113402
0.0007771937
0.0008397774
0.0008919414
0.0009210926
0.0009193241
0.0008374816
0.0007845772
0.0005739963
0.0006817949
0.0008141254
0.0009355349
0.00104838
0.001157673
0.00126418
0.001367124
0.001465726
0.001559297
0.001647148
0.001728604
0.001803078
0.001870109
0.001929381
0.001980725
0.002024106
0.002059608
0.002087412
0.00210778
0.002121031
0.00212753
0.002127667
0.00212185
0.002110497
0.002094027
0.002072861
0.002047411
0.002018082
0.00198527
0.001949356
0.001910707
0.001869673
0.001826585
0.001781759
0.001735486
0.001688043
0.001639684
0.001590644
0.001541143
0.001491381
0.001441544
0.001391804
0.001342318
0.001293228
0.001244668
0.001196757
0.001149604
0.001103304
0.001057945
0.0010136
0.0009703366
0.0009282084
0.0008872614
0.0008475331
0.0008090524
0.0007718411
0.0007359144
0.0007012811
0.0006679445
0.000635903
0.0006051504
0.0005756761
0.000547466
0.0005205023
0.0004947643
0.0004702285
0.0004468686
0.0004246562
0.0004035605
0.0003835488
0.0003645859
0.0003466347
0.0003296564
0.00031361
0.0002984527
0.0002841396
0.0002706248
0.000257862
0.000245805
0.0002344086
0.0002236283
0.0002134218
0.0002037501
0.0001945778
0.0001858718
0.0001776007
0.0001697342
0.0001622445
0.0001551086
0.0001483073
0.0001418248
0.0001356483
0.0001297693
0.0001241843
0.0001188943
0.000113904
0.0001092223
0.0001048619
0.00010084
9.717811e-05
9.390283e-05
9.104473e-05
8.863697e-05
8.671597e-05
8.532133e-05
8.449513e-05
8.42831e-05
8.473783e-05
8.591438e-05
8.786908e-05
9.066024e-05
9.434879e-05
9.89987e-05
0.0001046775
0.0001114568
0.0001194136
0.0001286302
0.000139194
0.0001511994
0.0001647495
0.0001799576
0.00019695
0.0002158684
0.0002368717
0.0002601368
0.0002858625
0.0003142755
0.0003456313
0.0003802135
0.000418333
0.0004603315
0.000506584
0.0005574984
0.0006135116
0.0006750829
0.0007426836
0.0008167796
0.0008978018
0.0009860974
0.001081846
0.001184922
0.001294682
0.001409648
0.001527089
0.001642432
0.001747882
0.001833681
0.001857411
0.001881054
0.0007481297
0.0008812178
0.001040689
0.001183117
0.001311414
0.001431711
0.001545105
0.001650845
0.001748171
0.001836447
0.001915042
0.001983369
0.002040963
0.002087533
0.002122987
0.002147418
0.002161093
0.002164419
0.002157918
0.002142198
0.002117926
0.002085799
0.002046529
0.002000828
0.001949395
0.001892912
0.001832037
0.0017674
0.001699602
0.001629213
0.001556767
0.001482766
0.001407675
0.001331924
0.001255907
0.001179984
0.001104478
0.001029682
0.000955856
0.000883233
0.0008120187
0.0007423951
0.000674522
0.0006085392
0.0005445677
0.0004827115
0.000423058
0.0003656793
0.0003106326
0.0002579609
0.0002076938
0.0001598478
0.0001144278
7.142726e-05
3.082977e-05
-7.390286e-06
-4.326654e-05
-7.683974e-05
-0.0001081569
-0.0001372703
-0.0001642371
-0.0001891183
-0.0002119785
-0.0002328851
-0.000251908
-0.0002691191
-0.0002845916
-0.0002984003
-0.0003106205
-0.0003213288
-0.0003306023
-0.0003385194
-0.000345159
-0.0003506006
-0.0003549244
-0.0003582117
-0.0003605445
-0.0003620042
-0.0003626705
-0.0003626201
-0.0003619273
-0.0003606631
-0.0003588936
-0.0003566771
-0.0003540645
-0.0003511025
-0.0003478356
-0.0003443071
-0.0003405528
-0.0003365979
-0.0003324654
-0.0003281774
-0.0003237535
-0.0003192061
-0.00031454
-0.0003097552
-0.0003048457
-0.0002997997
-0.0002945993
-0.0002892207
-0.0002836337
-0.0002778015
-0.0002716851
-0.0002652434
-0.0002584304
-0.0002511961
-0.0002434924
-0.0002352716
-0.0002264685
-0.000217014
-0.0002068389
-0.0001958732
-0.0001840455
-0.0001712824
-0.0001575077
-0.0001426417
-0.0001266
-0.0001092927
-9.062351e-05
-7.048869e-05
-4.877512e-05
-2.535872e-05
-1.008229e-07
2.715502e-05
5.658413e-05
8.837731e-05
0.0001227472
0.000159944
0.0002002568
0.0002440099
0.0002915571
0.0003432935
0.0003996576
0.0004611231
0.0005281909
0.0006013822
0.0006812275
0.0007682407
0.0008628743
0.0009654443
0.001076003
0.001194135
0.001318625
0.001446962
0.001574633
0.001694232
0.001794551
0.001862551
0.001875483
0.001890393
0.0009181812
0.001078192
0.001267022
0.001433946
0.001584029
0.00172533
0.001859521
0.001985922
0.002103715
0.002212148
0.002310428
0.002397794
0.002473619
0.002537493
0.002589235
0.002628888
0.002656694
0.002673057
0.002678511
0.002673684
0.002659266
0.002635981
0.002604566
0.002565754
0.002520269
0.002468813
0.002412069
0.002350692
0.002285311
0.002216524
0.0021449
0.002070974
0.001995249
0.001918191
0.001840233
0.001761773
0.001683172
0.001604762
0.001526839
0.001449674
0.001373509
0.001298562
0.001225027
0.001153081
0.001082876
0.001014551
0.0009482239
0.0008839977
0.000821958
0.0007621745
0.0007047013
0.0006495777
0.0005968292
0.000546468
0.0004984946
0.0004528988
0.0004096607
0.0003687522
0.0003301375
0.0002937743
0.0002596146
0.0002276054
0.0001976891
0.0001698046
0.0001438872
0.0001198698
9.768298e-05
7.725549e-05
5.851461e-05
4.138609e-05
2.579387e-05
1.165976e-05
-1.09615e-06
-1.255508e-05
-2.280032e-05
-3.191786e-05
-3.999547e-05
-4.712084e-05
-5.337921e-05
-5.885266e-05
-6.362095e-05
-6.776256e-05
-7.134824e-05
-7.443823e-05
-7.708246e-05
-7.932849e-05
-8.122413e-05
-8.282866e-05
-8.418763e-05
-8.531568e-05
-8.622446e-05
-8.692759e-05
-8.744114e-05
-8.776303e-05
-8.788571e-05
-8.780078e-05
-8.749644e-05
-8.695522e-05
-8.615307e-05
-8.5059e-05
-8.36346e-05
-8.183049e-05
-7.959604e-05
-7.688129e-05
-7.363064e-05
-6.9782e-05
-6.526627e-05
-6.000968e-05
-5.394243e-05
-4.699159e-05
-3.90796e-05
-3.012526e-05
-2.004424e-05
-8.748998e-06
3.851807e-06
1.785413e-05
3.335972e-05
5.047746e-05
6.932464e-05
9.002874e-05
0.0001127296
0.0001375824
0.0001647607
0.0001944611
0.0002269075
0.0002623586
0.0003011087
0.0003434853
0.0003898524
0.000440613
0.0004961995
0.0005571204
0.0006239654
0.0006973776
0.0007780323
0.0008666372
0.0009639248
0.001070625
0.001187412
0.001314818
0.001453089
0.001601963
0.001760332
0.001925785
0.002094037
0.002258389
0.002409162
0.002535305
0.002617736
0.002683531
0.001085922
0.001273451
0.001492765
0.001684894
0.001856521
0.002017238
0.002168897
0.002310575
0.002441206
0.002559803
0.002665362
0.002756951
0.002833843
0.002895601
0.002942092
0.002973468
0.002990123
0.002992653
0.002981809
0.002958453
0.00292352
0.002877976
0.002822797
0.002758949
0.002687376
0.002608996
0.002524693
0.002435314
0.002341667
0.00224452
0.002144596
0.002042575
0.001939087
0.001834719
0.001730005
0.001625435
0.00152145
0.001418449
0.001316786
0.00121678
0.001118711
0.001022828
0.0009293516
0.0008384742
0.0007503642
0.0006651664
0.0005830034
0.0005039769
0.0004281676
0.0003556366
0.0002864259
0.0002205593
0.0001580437
9.887068e-05
4.301746e-05
-9.551119e-06
-5.888131e-05
-0.000105029
-0.0001480587
-0.0001880421
-0.0002250574
-0.0002591885
-0.0002905241
-0.0003191569
-0.000345183
-0.0003687011
-0.0003898122
-0.0004086185
-0.0004252237
-0.0004397324
-0.0004522517
-0.000462891
-0.0004717622
-0.0004789778
-0.0004846536
-0.0004889093
-0.0004918659
-0.0004936427
-0.0004943534
-0.0004941071
-0.0004930092
-0.000491168
-0.0004886674
-0.0004855747
-0.0004819448
-0.0004778362
-0.0004733096
-0.0004684163
-0.0004632064
-0.0004577313
-0.0004520342
-0.0004461527
-0.0004401475
-0.0004340234
-0.0004277719
-0.0004213828
-0.0004148416
-0.0004081275
-0.0004012124
-0.0003940601
-0.0003866266
-0.0003788597
-0.0003707009
-0.0003620872
-0.0003529497
-0.0003432127
-0.0003327899
-0.0003215883
-0.0003095291
-0.0002965322
-0.0002825106
-0.0002673719
-0.0002510202
-0.0002333559
-0.0002142754
-0.0001936704
-0.0001714263
-0.0001474209
-0.0001215225
-9.358738e-05
-6.345706e-05
-3.095511e-05
4.116896e-06
4.198431e-05
8.290609e-05
0.0001271877
0.0001751812
0.0002272744
0.0002838977
0.0003455403
0.0004127424
0.0004861017
0.0005663168
0.0006541682
0.0007504909
0.0008561873
0.0009722049
0.001099498
0.001238969
0.001391376
0.001557165
0.001736216
0.001927464
0.002128365
0.002334227
0.002537541
0.002727063
0.002889304
0.003006519
0.003076606
0.001252286
0.001467589
0.001718135
0.001936408
0.002130672
0.00231227
0.00248348
0.002643354
0.00279075
0.002924591
0.003043757
0.003147213
0.003234169
0.003304176
0.003357143
0.003393295
0.003413128
0.003417357
0.003406863
0.003382645
0.003345768
0.003297325
0.003238402
0.003170069
0.003093361
0.003009281
0.002918789
0.002822804
0.002722201
0.002617806
0.002510402
0.002400718
0.002289438
0.002177188
0.002064545
0.001952034
0.001840128
0.001729253
0.00161979
0.001512076
0.001406413
0.001303069
0.00120228
0.001104255
0.001009176
0.0009172019
0.0008284683
0.0007430875
0.0006611499
0.0005827244
0.0005078587
0.0004365809
0.0003689002
0.0003048089
0.0002442836
0.0001872874
0.0001337712
8.367554e-05
3.693146e-05
-6.538042e-06
-4.681714e-05
-8.399631e-05
-0.0001181715
-0.0001494432
-0.0001779157
-0.0002036961
-0.0002268937
-0.0002476191
-0.0002659843
-0.0002821026
-0.0002960903
-0.0003080689
-0.0003181633
-0.0003264994
-0.0003332105
-0.0003384375
-0.0003423208
-0.0003449952
-0.0003465869
-0.0003472226
-0.0003470277
-0.0003461685
-0.0003447467
-0.000342815
-0.0003404131
-0.0003375855
-0.0003343678
-0.0003307807
-0.0003268668
-0.0003226945
-0.0003183147
-0.000313757
-0.0003090272
-0.000304146
-0.0002991275
-0.000293971
-0.0002886632
-0.0002831806
-0.0002774904
-0.0002715501
-0.000265308
-0.000258703
-0.0002516655
-0.0002441195
-0.0002359825
-0.0002271664
-0.0002175761
-0.0002071125
-0.0001956778
-0.0001831709
-0.0001694862
-0.0001545141
-0.000138142
-0.0001202538
-0.0001007294
-7.944394e-05
-5.626563e-05
-3.105421e-05
-3.65831e-06
2.608743e-05
5.83658e-05
9.338114e-05
0.000131364
0.0001725771
0.0002173221
0.0002659479
0.0003188562
0.000376505
0.0004394209
0.0005082237
0.000583666
0.0006665467
0.000757704
0.0008580343
0.000968539
0.001090402
0.001224904
0.001373366
0.001537073
0.001717183
0.00191456
0.002129496
0.002361287
0.002607636
0.002863887
0.003122174
0.003370368
0.003592585
0.003768267
0.00386867
0.001417733
0.001660936
0.001943207
0.00218835
0.002406055
0.002609344
0.002800833
0.002979418
0.003143731
0.00329245
0.003424199
0.003537715
0.003632053
0.00370669
0.003761531
0.00379686
0.003813269
0.003811604
0.003792908
0.003758359
0.003709211
0.003646742
0.003572222
0.003486897
0.003391975
0.003288626
0.003177973
0.003061091
0.002939004
0.002812684
0.002683048
0.002550956
0.002417207
0.002282541
0.002147632
0.002013095
0.001879483
0.001747293
0.001616965
0.001488894
0.001363426
0.001240869
0.001121496
0.001005544
0.000893224
0.000784715
0.0006801704
0.0005797168
0.0004834547
0.000391459
0.0003037802
0.0002204454
0.0001414599
6.680928e-05
-3.538609e-06
-6.963158e-05
-0.0001315311
-0.0001893107
-0.0002430543
-0.0002928552
-0.000338815
-0.0003810428
-0.0004196539
-0.0004547689
-0.0004865126
-0.0005150127
-0.0005403991
-0.0005628031
-0.0005823571
-0.0005991938
-0.0006134508
-0.0006252741
-0.000634814
-0.0006422226
-0.000647668
-0.0006513326
-0.0006533919
-0.0006540052
-0.0006532968
-0.0006513997
-0.0006484434
-0.0006445381
-0.000639852
-0.0006345294
-0.0006286478
-0.0006222743
-0.000615472
-0.0006082967
-0.0006008069
-0.0005930618
-0.0005851065
-0.0005769649
-0.0005686169
-0.0005600936
-0.0005514244
-0.0005426171
-0.0005336612
-0.0005245332
-0.0005151979
-0.0005056093
-0.0004957102
-0.0004854331
-0.0004747009
-0.0004634279
-0.0004515204
-0.0004388777
-0.0004253929
-0.0004109537
-0.000395445
-0.0003787494
-0.0003607467
-0.0003413135
-0.0003203233
-0.0002976465
-0.0002731491
-0.0002466917
-0.0002181278
-0.0001873012
-0.0001540435
-0.00011817
-7.947596e-05
-3.773131e-05
7.324827e-06
5.599095e-05
0.000108611
0.0001655833
0.0002273698
0.0002945063
0.0003676158
0.000447431
0.0005348363
0.000630816
0.0007364196
0.0008527756
0.0009811951
0.00112315
0.001280276
0.001454379
0.001647278
0.001860701
0.002096118
0.002354435
0.00263551
0.002937439
0.003255575
0.003581301
0.003900515
0.004192499
0.004428372
0.004561225
0.001582403
0.001853566
0.002167901
0.002440518
0.002682452
0.002908371
0.003121237
0.003319798
0.003502473
0.003667709
0.003813895
0.003939575
0.004043687
0.004125683
0.004185514
0.004223558
0.00424053
0.004237429
0.004215472
0.004176023
0.00412052
0.004050416
0.003967141
0.003872091
0.003766614
0.003652011
0.003529526
0.003400349
0.003265612
0.003126387
0.002983683
0.002838443
0.002691545
0.002543796
0.002395932
0.002248621
0.00210246
0.001957983
0.001815665
0.001675924
0.001539131
0.001405613
0.001275658
0.001149522
0.001027425
0.0009095599
0.0007960899
0.0006871494
0.0005828446
0.0004832544
0.0003884303
0.0002983985
0.0002131616
0.0001327006
5.69775e-05
-1.406236e-05
-8.048826e-05
-0.0001423822
-0.0001998375
-0.0002529576
-0.0003018555
-0.0003466521
-0.0003874761
-0.0004244615
-0.0004577465
-0.0004874722
-0.0005137814
-0.0005368182
-0.0005567277
-0.0005736538
-0.0005877487
-0.0005991776
-0.000608108
-0.0006147165
-0.0006192127
-0.0006218343
-0.0006227987
-0.0006223324
-0.0006206198
-0.000617755
-0.0006138314
-0.0006088893
-0.0006030317
-0.0005964092
-0.0005891726
-0.0005814413
-0.0005733098
-0.0005648551
-0.0005561444
-0.0005472371
-0.0005381815
-0.0005290111
-0.0005197421
-0.000510396
-0.0005009861
-0.0004915088
-0.0004819451
-0.0004722628
-0.0004624173
-0.0004523521
-0.0004419992
-0.0004312789
-0.0004201006
-0.0004083643
-0.000395961
-0.0003827742
-0.000368681
-0.0003535526
-0.0003372571
-0.0003196591
-0.0003006209
-0.0002800018
-0.0002576584
-0.0002334438
-0.0002072072
-0.0001787922
-0.0001480347
-0.0001147602
-7.878033e-05
-3.988854e-05
2.144888e-06
4.757879e-05
9.670797e-05
0.0001498713
0.0002074612
0.0002699344
0.0003378236
0.0004117517
0.0004924473
0.0005807664
0.0006777164
0.0007844619
0.000902346
0.001032973
0.001178154
0.001339654
0.001519433
0.00171989
0.001943603
0.002193173
0.002471002
0.002778969
0.003117872
0.003486542
0.00388054
0.004290355
0.004699038
0.005079404
0.005390906
0.005567434
0.001746186
0.002045303
0.002391924
0.002692507
0.002959381
0.003208822
0.003444113
0.003663816
0.00386608
0.004049043
0.004210784
0.004349575
0.004464175
0.004553963
0.004618896
0.0046594
0.004676277
0.004670645
0.004643875
0.004597509
0.004533166
0.004452473
0.00435703
0.004248392
0.004128069
0.003997513
0.00385812
0.003711226
0.003558101
0.00339995
0.003237911
0.003073046
0.002906346
0.00273872
0.002571
0.002403935
0.0022382
0.002074395
0.00191305
0.001754635
0.001599567
0.001448211
0.001300891
0.001157894
0.001019471
0.0008858382
0.000757182
0.0006336557
0.0005153809
0.0004024479
0.0002949166
0.0001928175
9.615511e-05
4.909531e-06
-8.095998e-05
-0.0001615126
-0.0002368234
-0.0003069814
-0.0003720885
-0.0004322579
-0.0004876142
-0.0005382917
-0.0005844334
-0.0006261889
-0.0006637113
-0.0006971554
-0.0007266767
-0.0007524337
-0.000774585
-0.0007932839
-0.0008086975
-0.0008210146
-0.0008304327
-0.000837154
-0.0008414288
-0.0008435675
-0.0008437901
-0.0008423328
-0.0008393533
-0.000835001
-0.0008294278
-0.0008227554
-0.0008150697
-0.0008065022
-0.0007972323
-0.0007874074
-0.000777141
-0.0007665259
-0.000755641
-0.0007445537
-0.0007333188
-0.0007219766
-0.0007105519
-0.00069906
-0.0006875066
-0.0006758859
-0.0006641767
-0.0006523435
-0.0006403372
-0.0006280957
-0.0006155437
-0.0006025926
-0.0005891421
-0.0005750806
-0.0005602863
-0.0005446278
-0.0005279671
-0.0005101602
-0.0004910587
-0.0004705104
-0.0004483606
-0.0004244518
-0.0003986242
-0.0003707152
-0.0003405579
-0.0003079803
-0.0002728019
-0.0002348312
-0.0001938615
-0.0001496652
-0.0001019883
-5.054309e-05
4.999828e-06
6.502147e-05
0.0001299656
0.0002003521
0.000276792
0.0003600048
0.0004508389
0.0005502965
0.0006595623
0.0007800328
0.0009133593
0.001061545
0.001226849
0.001411614
0.001618499
0.001850576
0.002111378
0.002404739
0.002734433
0.003103789
0.00351504
0.00396819
0.004459228
0.004977499
0.005502045
0.005996844
0.006405489
0.006636243
0.001908763
0.002235752
0.002614766
0.002943695
0.003236139
0.003509957
0.003768738
0.004010836
0.004234092
0.004436295
0.004615163
0.00476866
0.004895353
0.004994549
0.005066216
0.005110833
0.005129289
0.005122826
0.005092986
0.005041507
0.004970207
0.004880901
0.004775368
0.004655337
0.004522482
0.004378421
0.004224703
0.004062809
0.00389415
0.003720062
0.003541802
0.003360547
0.003177389
0.002993332
0.002809289
0.002626083
0.002444448
0.002265037
0.002088425
0.001915118
0.001745564
0.001580155
0.001419239
0.001263124
0.001112079
0.0009663381
0.0008261023
0.0006915367
0.0005627724
0.0004399059
0.0003229999
0.0002120857
0.0001071656
8.216478e-06
-8.480746e-05
-0.0001719712
-0.0002533564
-0.0003290595
-0.0003991907
-0.0004638732
-0.0005232429
-0.0005774477
-0.0006266458
-0.0006710018
-0.0007106829
-0.0007458557
-0.0007766846
-0.0008033378
-0.0008259768
-0.0008447649
-0.0008598849
-0.0008715628
-0.0008800334
-0.0008855663
-0.0008885171
-0.0008893355
-0.0008881737
-0.0008850348
-0.0008800302
-0.0008734436
-0.0008655258
-0.0008564677
-0.000846427
-0.0008355648
-0.0008240465
-0.0008120154
-0.0007995902
-0.0007868712
-0.000773944
-0.0007608806
-0.0007477394
-0.0007345643
-0.0007213836
-0.000708213
-0.0006950565
-0.0006819045
-0.0006687326
-0.0006554993
-0.0006421469
-0.0006286037
-0.0006147838
-0.0006005859
-0.0005858955
-0.0005705852
-0.0005545163
-0.0005375403
-0.0005195004
-0.0005002336
-0.0004795717
-0.0004573432
-0.0004333736
-0.0004074866
-0.000379504
-0.000349245
-0.0003165255
-0.0002811559
-0.0002429379
-0.0002016616
-0.0001570998
-0.0001090024
-5.708966e-05
-1.043512e-06
5.950218e-05
0.0001249737
0.0001958718
0.0002727863
0.0003564147
0.0004475853
0.0005472828
0.0006566793
0.0007771716
0.0009104242
0.001058424
0.001223548
0.001408611
0.00161698
0.00185232
0.002118471
0.002420171
0.002762853
0.003152237
0.003593831
0.004092069
0.004648838
0.005261007
0.005916586
0.006589211
0.007230799
0.007763548
0.008060485
0.002069634
0.002424314
0.002835697
0.003193226
0.003511769
0.003810752
0.004094058
0.004359822
0.00460554
0.004828599
0.005026286
0.005196196
0.005336653
0.005446849
0.005526729
0.005576781
0.005597927
0.005591498
0.005559187
0.005502919
0.005424704
0.005326544
0.005210395
0.005078165
0.004931707
0.004772808
0.004603186
0.004424479
0.00423825
0.004045977
0.003849055
0.003648787
0.003446386
0.003242963
0.00303953
0.002836998
0.002636179
0.00243779
0.002242464
0.002050758
0.001863161
0.001680104
0.001501971
0.001329099
0.001161789
0.001000301
0.0008448598
0.000695652
0.0005528256
0.0004164904
0.0002867188
0.0001635483
4.698474e-05
-6.299362e-05
-0.0001664325
-0.0002633982
-0.0003539744
-0.0004382606
-0.0005163716
-0.0005884373
-0.000654603
-0.0007150286
-0.0007698867
-0.0008193571
-0.0008636178
-0.0009028398
-0.0009371868
-0.0009668314
-0.000991945
-0.001012696
-0.001029263
-0.001041901
-0.00105096
-0.001056809
-0.001059864
-0.001060403
-0.001058578
-0.001054484
-0.001048352
-0.00104051
-0.001031237
-0.001020752
-0.001009241
-0.0009968763
-0.0009838182
-0.0009702142
-0.0009561933
-0.0009418668
-0.0009273305
-0.0009126647
-0.0008979347
-0.0008831915
-0.0008684669
-0.0008537782
-0.0008391291
-0.0008245083
-0.0008098889
-0.0007952241
-0.0007804472
-0.0007654788
-0.0007502231
-0.0007345679
-0.0007183848
-0.0007015316
-0.0006838532
-0.0006651834
-0.0006453468
-0.0006241608
-0.0006014376
-0.0005769858
-0.0005506115
-0.0005221192
-0.0004913121
-0.0004579916
-0.0004219562
-0.000382999
-0.0003409046
-0.0002954449
-0.0002463734
-0.0001934182
-0.0001362738
-7.459156e-05
-7.967135e-06
6.407328e-05
0.0001420902
0.0002267497
0.0003188461
0.0004193307
0.0005293436
0.0006502532
0.0007837058
0.0009316853
0.001096586
0.001281303
0.00148934
0.001725007
0.001993162
0.00229912
0.002649234
0.003051047
0.003512955
0.004043643
0.004650863
0.005339454
0.006107879
0.006942607
0.007809891
0.008644855
0.009340262
0.009720204
0.002228145
0.002610215
0.003053787
0.003440026
0.003785068
0.004109899
0.004418705
0.004709398
0.004979115
0.005224793
0.00544323
0.00563158
0.005787864
0.005911128
0.006001249
0.006058673
0.006084308
0.006079545
0.006046214
0.005986432
0.005902411
0.00579635
0.005670408
0.005526698
0.005367275
0.005194126
0.005009153
0.004814174
0.004610917
0.004401015
0.004186011
0.003967343
0.003746351
0.003524263
0.003302194
0.003081144
0.002862003
0.002645556
0.00243249
0.002223409
0.002018841
0.001819252
0.001625054
0.001436615
0.001254258
0.001078268
0.00090889
0.0007463277
0.0005907432
0.0004422564
0.0003009456
0.0001668513
3.998007e-05
-7.96907e-05
-0.0001922088
-0.0002976431
-0.0003960802
-0.0004876232
-0.0005723922
-0.0006505252
-0.0007221786
-0.0007875279
-0.0008467625
-0.0009000758
-0.000947648
-0.0009896408
-0.001026229
-0.0010576
-0.00108393
-0.001105364
-0.001122122
-0.001134581
-0.001143136
-0.001148234
-0.001150308
-0.001149302
-0.00114552
-0.001139326
-0.001131051
-0.001121004
-0.001109458
-0.001096652
-0.001082793
-0.001068072
-0.00105266
-0.001036718
-0.001020384
-0.001003782
-0.0009870154
-0.0009701742
-0.0009533286
-0.0009365349
-0.0009198292
-0.0009032315
-0.0008867442
-0.0008703547
-0.0008540337
-0.0008377277
-0.0008213651
-0.0008048577
-0.0007880983
-0.0007709609
-0.0007533019
-0.0007349616
-0.0007157659
-0.0006955284
-0.0006740523
-0.0006511332
-0.0006265608
-0.0006001215
-0.0005715994
-0.000540778
-0.0005074402
-0.000471368
-0.0004323412
-0.0003901352
-0.0003445167
-0.0002952391
-0.0002420361
-0.0001846137
-0.0001226404
-5.573561e-05
1.654428e-05
9.472296e-05
0.0001794251
0.0002713994
0.0003715447
0.0004809483
0.0006009243
0.0007330639
0.000879301
0.001041992
0.001224016
0.001428895
0.001660949
0.001925496
0.002229046
0.002579053
0.002983954
0.003454167
0.00400178
0.004639923
0.005381265
0.006235242
0.007203076
0.008269505
0.00939051
0.01047726
0.01138131
0.01185826
0.002383521
0.002792535
0.003267938
0.003682821
0.004054597
0.004405813
0.004740981
0.005057814
0.005353089
0.00562327
0.005864601
0.006073718
0.00624826
0.006387046
0.006489817
0.006556894
0.006589093
0.006587811
0.006554997
0.006492949
0.00640408
0.006290799
0.006155478
0.006000455
0.00582801
0.005640344
0.005439562
0.005227673
0.005006583
0.004778093
0.004543903
0.004305603
0.004064668
0.003822458
0.003580201
0.003339001
0.003099837
0.002863566
0.002630942
0.00240262
0.002179173
0.001961107
0.001748869
0.00154286
0.001343434
0.001150902
0.0009655351
0.0007875589
0.0006171531
0.0004544509
0.0002995397
0.0001524656
1.323898e-05
-0.000118161
-0.0002417812
-0.00035769
-0.0004659736
-0.000566735
-0.0006600971
-0.0007462052
-0.0008252271
-0.0008973505
-0.0009627772
-0.001021707
-0.001074304
-0.001120734
-0.001161196
-0.00119589
-0.001224956
-0.001248504
-0.00126691
-0.001280591
-0.001289942
-0.001295424
-0.00129733
-0.00129578
-0.001291229
-0.001284117
-0.001274799
-0.001263586
-0.001250766
-0.0012366
-0.001221319
-0.001205132
-0.001188227
-0.001170773
-0.001152923
-0.001134809
-0.001116547
-0.001098236
-0.00107995
-0.001061751
-0.001043683
-0.001025771
-0.001008015
-0.0009903987
-0.000972892
-0.0009554388
-0.0009379621
-0.0009203639
-0.0009025246
-0.0008843042
-0.0008655427
-0.0008460619
-0.0008256675
-0.0008041512
-0.0007812933
-0.0007568657
-0.0007306341
-0.0007023607
-0.0006718067
-0.0006387329
-0.000602901
-0.000564073
-0.00052201
-0.0004764689
-0.0004271989
-0.0003739352
-0.0003163921
-0.0002542534
-0.0001871616
-0.000114704
-3.639645e-05
4.833656e-05
0.0001401858
0.0002399861
0.0003487515
0.0004677209
0.0005984038
0.0007426489
0.0009027217
0.001081413
0.001282175
0.001509288
0.001768081
0.002065207
0.002409024
0.002809569
0.003278415
0.003829914
0.004481277
0.005251892
0.006161629
0.007226942
0.008453587
0.009824254
0.01128005
0.0126968
0.01386708
0.01444939
0.002534894
0.002970249
0.003476919
0.003920178
0.004318722
0.004696667
0.00505889
0.005402955
0.005725314
0.006021958
0.006288542
0.006521097
0.006716772
0.006874058
0.006992445
0.007072012
0.007113375
0.007117857
0.007087487
0.007024744
0.006932261
0.006812686
0.006668649
0.006502759
0.006317559
0.006115496
0.0058989
0.005669989
0.005430865
0.005183514
0.004929809
0.004671505
0.004410235
0.004147499
0.003884659
0.00362293
0.003363389
0.003106977
0.002854513
0.002606709
0.002364184
0.002127482
0.001897086
0.001673425
0.001456884
0.001247801
0.001046469
0.0008531353
0.0006679953
0.0004911932
0.0003228229
0.0001629336
1.153699e-05
-0.0001313877
-0.0002658884
-0.0003920347
-0.0005099132
-0.0006196277
-0.0007213049
-0.0008150971
-0.0009011801
-0.00097975
-0.001051019
-0.001115182
-0.001172397
-0.001222852
-0.001266768
-0.001304349
-0.001335677
-0.001360931
-0.001380541
-0.001394942
-0.001404517
-0.001409657
-0.001410627
-0.001407878
-0.001401928
-0.001393228
-0.001382162
-0.001369071
-0.001354269
-0.001338039
-0.001320636
-0.001302287
-0.001283198
-0.001263554
-0.001243519
-0.001223241
-0.001202848
-0.001182447
-0.001162121
-0.001141941
-0.001121957
-0.001102194
-0.001082657
-0.001063332
-0.001044188
-0.001025164
-0.001006178
-0.0009871211
-0.0009678624
-0.0009482469
-0.0009280971
-0.0009072149
-0.000885384
-0.0008623721
-0.0008379342
-0.000811816
-0.0007837569
-0.000753493
-0.00072076
-0.0006852947
-0.0006468361
-0.0006051253
-0.0005599037
-0.0005109102
-0.0004578762
-0.0004005195
-0.0003385353
-0.0002715864
-0.0001992895
-0.0001212003
-3.67937e-05
5.45588e-05
0.0001536175
0.0002613089
0.0003787694
0.0005074009
0.000648931
0.0008054943
0.0009797328
0.001174935
0.00139522
0.00164577
0.001933129
0.002265594
0.00265372
0.003110907
0.003652915
0.004299444
0.005074791
0.006007284
0.007127197
0.008461528
0.01002325
0.01179244
0.01368777
0.01553096
0.0170283
0.01769873
0.002681352
0.003142272
0.003679427
0.004150567
0.004575677
0.004980449
0.005370185
0.005742377
0.006093225
0.006418292
0.006712637
0.006971608
0.007191722
0.007370979
0.007508478
0.007603928
0.007657624
0.007670707