/*--------------------------------*- C++ -*----------------------------------*\
| =========                 |                                                 |
| \\      /  F ield         | OpenFOAM: The Open Source CFD Toolbox           |
|  \\    /   O peration     | Version:  2106                                  |
|   \\  /    A nd           | Website:  www.openfoam.com                      |
|    \\/     M anipulation  |                                                 |
\*---------------------------------------------------------------------------*/
FoamFile
{
    version     2.0;
    format      ascii;
    arch        "LSB;label=32;scalar=64";
    class       volScalarField;
    location    "110";
    object      p;
}
// * * * * * * * * * * * * * * * * * * * * * * * * * * * * * * * * * * * * * //

dimensions      [ 0 2 -2 0 0 0 0 ];

internalField   nonuniform List<scalar> 
300000
(
0.0001924568
0.0002820677
0.0003888508
0.00049266
0.000594492
0.0006957461
0.0007963568
0.0008958607
0.0009937719
0.001089593
0.001182797
0.001272845
0.001359208
0.001441396
0.001518974
0.001591579
0.001658922
0.001720793
0.00177706
0.001827657
0.001872584
0.001911893
0.001945683
0.001974088
0.001997273
0.002015426
0.002028754
0.002037475
0.002041818
0.002042018
0.002038313
0.002030942
0.002020141
0.002006147
0.001989188
0.001969489
0.00194727
0.001922742
0.001896108
0.001867566
0.001837304
0.001805506
0.001772344
0.001737989
0.001702599
0.001666331
0.001629332
0.001591743
0.0015537
0.001515331
0.001476759
0.001438097
0.001399455
0.001360933
0.001322628
0.001284627
0.00124701
0.001209855
0.001173228
0.001137193
0.001101807
0.00106712
0.001033178
0.001000021
0.0009676854
0.0009361997
0.0009055904
0.0008758783
0.0008470802
0.0008192088
0.0007922731
0.000766278
0.0007412248
0.000717112
0.0006939346
0.0006716843
0.0006503494
0.0006299168
0.0006103702
0.000591691
0.0005738577
0.0005568501
0.0005406456
0.0005252183
0.0005105458
0.000496605
0.0004833716
0.0004708221
0.0004589384
0.0004476994
0.0004370868
0.0004270825
0.0004176744
0.0004088501
0.0004005992
0.0003929147
0.0003857984
0.0003792473
0.0003732594
0.0003678523
0.000363032
0.0003588133
0.0003552177
0.0003522677
0.000349987
0.0003484225
0.0003476048
0.000347572
0.0003483841
0.000350091
0.0003527408
0.0003564
0.0003611655
0.000367103
0.0003743028
0.0003828646
0.0003928952
0.0004045324
0.0004179085
0.0004332192
0.0004506584
0.0004704053
0.0004927901
0.0005181894
0.0005469694
0.0005795565
0.0006167953
0.0006595206
0.0007087348
0.000765942
0.000833192
0.0009135225
0.001010875
0.001131374
0.001284265
0.001484144
0.001754223
0.002134473
0.002692325
0.00355046
0.004935654
0.007282097
0.01144672
0.01914788
0.03375862
0.06171744
0.1071103
0.1961853
0.1831529
0.03772394
0.0003925558
0.0004804381
0.0005830244
0.0006716067
0.0007491842
0.0008202883
0.0008860105
0.0009462567
0.001000861
0.001049657
0.001092431
0.001128951
0.001159022
0.001182524
0.001199437
0.001209837
0.0012139
0.001211883
0.001204114
0.00119097
0.001172868
0.001150244
0.001123543
0.001093209
0.001059679
0.001023376
0.0009847077
0.0009440606
0.0009018012
0.0008582738
0.0008137999
0.0007686779
0.0007231828
0.0006775664
0.0006320576
0.0005868628
0.0005421671
0.000498135
0.0004549118
0.000412625
0.000371386
0.0003312912
0.0002924232
0.0002548528
0.0002186391
0.000183831
0.0001504679
0.00011858
8.818904e-05
5.930873e-05
3.194507e-05
6.097061e-06
-1.824298e-05
-4.108914e-05
-6.246072e-05
-8.238206e-05
-0.0001008821
-0.0001179934
-0.0001337518
-0.0001481958
-0.0001613665
-0.0001733069
-0.0001840613
-0.0001936751
-0.0002021952
-0.0002096689
-0.0002161439
-0.000221668
-0.0002262894
-0.0002300561
-0.0002330157
-0.000235216
-0.0002367039
-0.0002375264
-0.0002377299
-0.0002373596
-0.0002364613
-0.0002350805
-0.0002332611
-0.0002310452
-0.0002284739
-0.0002255865
-0.0002224207
-0.0002190102
-0.0002153864
-0.0002115799
-0.0002076164
-0.0002035169
-0.0001992988
-0.0001949797
-0.0001905727
-0.0001860873
-0.0001815289
-0.0001769031
-0.0001722099
-0.0001674452
-0.0001626022
-0.0001576733
-0.0001526435
-0.000147493
-0.0001422056
-0.0001367584
-0.0001311238
-0.000125271
-0.0001191707
-0.0001127841
-0.0001060748
-9.899648e-05
-9.151443e-05
-8.357405e-05
-7.511962e-05
-6.609549e-05
-5.643978e-05
-4.609167e-05
-3.496775e-05
-2.299118e-05
-1.00703e-05
3.918707e-06
1.910495e-05
3.563319e-05
5.367877e-05
7.34523e-05
9.52785e-05
0.000119508
0.0001465183
0.0001768538
0.00021137
0.0002509904
0.0002969782
0.000351192
0.0004162007
0.0004957153
0.0005951078
0.0007226131
0.0008911149
0.001121133
0.001446447
0.001924711
0.002656189
0.003821283
0.005751444
0.00906912
0.01495796
0.02565758
0.04533214
0.08144753
0.1428527
0.2631881
0.2449507
0.02762473
0.0005740605
0.0006818746
0.0008142246
0.0009356513
0.001048514
0.001157826
0.001264353
0.001367319
0.001465944
0.001559541
0.00164742
0.001728907
0.001803414
0.001870481
0.001929793
0.00198118
0.002024608
0.002060161
0.002088021
0.00210845
0.002121768
0.002128339
0.002128554
0.002122822
0.00211156
0.00209519
0.002074131
0.002048796
0.002019592
0.001986914
0.001951144
0.001912649
0.00187178
0.00182887
0.001784233
0.001738163
0.001690935
0.001642805
0.001594011
0.001544769
0.001495284
0.001445741
0.001396313
0.001347156
0.001298416
0.001250225
0.001202704
0.001155962
0.001110097
0.001065195
0.001021333
0.000978576
0.0009369806
0.0008965936
0.0008574527
0.0008195881
0.0007830223
0.0007477711
0.0007138443
0.0006812462
0.000649976
0.0006200282
0.0005913929
0.0005640571
0.0005380039
0.0005132132
0.0004896622
0.000467326
0.0004461771
0.0004261858
0.0004073207
0.0003895485
0.0003728347
0.0003571419
0.0003424317
0.0003286659
0.0003158039
0.0003038017
0.0002926162
0.0002822051
0.0002725265
0.0002635395
0.0002552047
0.0002474846
0.0002403424
0.0002337442
0.0002276624
0.0002220737
0.0002169552
0.0002122893
0.0002080602
0.000204255
0.0002008613
0.0001978745
0.0001952967
0.0001931321
0.0001913865
0.0001900747
0.0001892168
0.0001888306
0.0001889442
0.0001895948
0.0001908181
0.0001926573
0.0001951587
0.0001983736
0.0002023701
0.0002072159
0.000212965
0.0002196991
0.0002275067
0.0002364782
0.0002467064
0.0002583085
0.0002713982
0.0002861156
0.0003026028
0.0003210409
0.0003416458
0.0003646595
0.000390365
0.0004191039
0.0004512883
0.0004874646
0.0005283059
0.000574642
0.0006275338
0.0006884861
0.0007594157
0.0008428822
0.0009425478
0.001063671
0.001213999
0.001404975
0.001654392
0.001990463
0.002459428
0.003138917
0.004163243
0.005769963
0.008390205
0.01282015
0.02054608
0.03433108
0.05925871
0.1041265
0.1797514
0.3041652
0.2811221
0.04496468
0.0007482127
0.0008813197
0.001040814
0.001183262
0.001311578
0.001431895
0.00154531
0.001651073
0.001748424
0.001836725
0.001915349
0.001983707
0.002041334
0.002087941
0.002123435
0.00214791
0.002161632
0.002165009
0.002158565
0.002142907
0.002118702
0.002086647
0.002047456
0.00200184
0.001950499
0.001894116
0.001833348
0.001768826
0.001701152
0.001630896
0.001558592
0.001484743
0.001409815
0.001334238
0.001258406
0.00118268
0.001107383
0.001032809
0.0009592181
0.0008868443
0.0008158936
0.0007465484
0.0006789692
0.0006132963
0.0005496514
0.0004881387
0.0004288463
0.0003718468
0.000317198
0.0002649435
0.000215113
0.0001677239
0.0001227814
8.027948e-05
4.020203e-05
2.52376e-06
-3.278839e-05
-6.577492e-05
-9.648268e-05
-0.0001249637
-0.0001512746
-0.0001754762
-0.0001976333
-0.0002178128
-0.0002360844
-0.0002525199
-0.0002671927
-0.0002801769
-0.0002915479
-0.0003013816
-0.0003097544
-0.0003167431
-0.000322425
-0.0003268775
-0.0003301784
-0.0003324055
-0.0003336364
-0.0003339495
-0.0003334225
-0.0003321309
-0.0003301457
-0.0003275333
-0.000324359
-0.0003206852
-0.0003165677
-0.0003120566
-0.0003071951
-0.0003020186
-0.0002965579
-0.0002908383
-0.0002848844
-0.0002787181
-0.0002723535
-0.0002657957
-0.0002590437
-0.0002520902
-0.0002449253
-0.0002375349
-0.0002298988
-0.0002219923
-0.0002137786
-0.0002052223
-0.0001962787
-0.0001868951
-0.0001770146
-0.0001665803
-0.0001555147
-0.0001437501
-0.0001311986
-0.0001177855
-0.0001034163
-8.79807e-05
-7.137382e-05
-5.346315e-05
-3.413779e-05
-1.323949e-05
9.397764e-06
3.397418e-05
6.072334e-05
8.992248e-05
0.0001218827
0.0001569903
0.0001957429
0.0002387591
0.0002868395
0.0003409508
0.0004023333
0.0004727753
0.0005545511
0.0006507118
0.000765668
0.0009057091
0.001079997
0.00130223
0.001593517
0.001987186
0.002537547
0.003335074
0.004534502
0.00640651
0.009434981
0.01449782
0.02320001
0.03844692
0.06542443
0.1126415
0.189931
0.3031019
0.27717
0.0536839
0.000918282
0.001078315
0.001267172
0.00143412
0.001584225
0.00172555
0.001859767
0.001986195
0.002104018
0.002212483
0.002310799
0.002398203
0.002474071
0.00253799
0.002589783
0.002629491
0.002657358
0.002673786
0.002679311
0.002674562
0.002660228
0.002637035
0.00260572
0.002567016
0.002521647
0.002470317
0.002413709
0.002352477
0.002287252
0.002218634
0.002147189
0.002073456
0.001997936
0.001921098
0.001843374
0.001765163
0.001686827
0.001608698
0.001531074
0.001454226
0.001378396
0.001303803
0.001230643
0.001159091
0.001089304
0.001021418
0.0009555538
0.0008918145
0.0008302864
0.0007710401
0.0007141306
0.000659598
0.0006074683
0.0005577548
0.0005104585
0.0004655699
0.0004230699
0.0003829311
0.0003451181
0.0003095893
0.0002762973
0.0002451899
0.0002162099
0.0001892966
0.0001643861
0.0001414117
0.0001203044
0.0001009934
8.340678e-05
6.74714e-05
5.311275e-05
4.025516e-05
2.882126e-05
1.873343e-05
9.913275e-06
2.279634e-06
-4.250227e-06
-9.758417e-06
-1.43269e-05
-1.803578e-05
-2.096013e-05
-2.316991e-05
-2.473291e-05
-2.571453e-05
-2.617276e-05
-2.615795e-05
-2.571239e-05
-2.486926e-05
-2.365611e-05
-2.209595e-05
-2.021205e-05
-1.80317e-05
-1.556794e-05
-1.282187e-05
-9.782787e-06
-6.43428e-06
-2.752201e-06
1.289428e-06
5.720982e-06
1.058085e-05
1.591982e-05
2.178682e-05
2.824062e-05
3.53484e-05
4.318227e-05
5.181799e-05
6.134016e-05
7.184407e-05
8.343986e-05
9.621377e-05
0.0001102899
0.0001257876
0.0001428507
0.0001616209
0.0001822573
0.0002049515
0.0002299102
0.0002573601
0.0002875824
0.0003209033
0.0003577247
0.0003985105
0.0004438432
0.0004944752
0.0005513378
0.0006155878
0.0006887508
0.000772855
0.000870594
0.0009856101
0.001122952
0.001289827
0.001496712
0.001759166
0.002100862
0.00255888
0.00319277
0.004100691
0.005448257
0.007521097
0.01082122
0.01624332
0.0253912
0.04110108
0.068313
0.1148551
0.1893323
0.2940053
0.2661368
0.07412524
0.00108604
0.001273596
0.001492941
0.001685095
0.001856748
0.002017492
0.00216918
0.002310888
0.002441552
0.002560185
0.002665783
0.002757413
0.002834351
0.002896159
0.002942705
0.002974141
0.002990862
0.002993463
0.002982697
0.002959426
0.002924585
0.002879141
0.00282407
0.002760339
0.002688893
0.00261065
0.002526494
0.002437274
0.002343797
0.002246833
0.002147105
0.002045293
0.001942029
0.001837899
0.001733439
0.001629138
0.001525441
0.001422744
0.001321404
0.001221739
0.001124031
0.00102853
0.0009354562
0.0008450033
0.0007573403
0.0006726128
0.0005909442
0.0005124366
0.0004371718
0.0003652114
0.0002965981
0.0002313565
0.000169494
0.0001110025
5.586017e-05
4.032193e-06
-4.452734e-05
-8.987388e-05
-0.0001320714
-0.0001711915
-0.0002073122
-0.0002405169
-0.0002708938
-0.000298536
-0.0003235395
-0.0003460027
-0.0003660266
-0.000383714
-0.000399168
-0.0004124928
-0.0004237936
-0.0004331775
-0.0004407532
-0.0004466301
-0.0004509175
-0.000453728
-0.0004551775
-0.0004553825
-0.000454455
-0.0004525025
-0.0004496258
-0.0004459199
-0.000441475
-0.0004363821
-0.0004307159
-0.000424536
-0.0004178893
-0.0004108139
-0.0004033486
-0.0003955297
-0.0003873887
-0.0003789528
-0.0003702431
-0.0003612762
-0.0003520555
-0.0003425815
-0.0003328408
-0.0003228153
-0.0003124808
-0.0003017981
-0.0002907154
-0.000279172
-0.0002670972
-0.0002544146
-0.0002410465
-0.0002268968
-0.0002118698
-0.0001958561
-0.0001787399
-0.0001604083
-0.0001407265
-0.0001195734
-9.676684e-05
-7.216263e-05
-4.55708e-05
-1.678905e-05
1.441317e-05
4.829065e-05
8.51602e-05
0.0001253841
0.0001694266
0.0002178283
0.000271224
0.0003304517
0.0003965556
0.0004708507
0.0005550468
0.0006513692
0.0007628403
0.0008935332
0.001048963
0.001237028
0.001469134
0.001762015
0.002140915
0.002644896
0.003335905
0.004314737
0.005748997
0.007923373
0.01132999
0.01683089
0.02594399
0.04130611
0.06741755
0.1113062
0.1805343
0.2810818
0.2523815
0.1019786
0.001252421
0.001467754
0.001718335
0.001936637
0.002130929
0.002312558
0.0024838
0.002643708
0.002791141
0.002925022
0.003044232
0.003147736
0.003234743
0.003304808
0.003357837
0.003394058
0.003413966
0.003418277
0.003407872
0.003383751
0.00334698
0.003298651
0.003239854
0.003171655
0.003095093
0.00301117
0.002920847
0.002825044
0.002724636
0.002620451
0.00251327
0.002403827
0.002292802
0.002180825
0.002068473
0.001956272
0.001844694
0.001734168
0.001625073
0.00151775
0.0014125
0.001309592
0.001209264
0.001111723
0.001017155
0.0009257191
0.0008375506
0.0007527633
0.0006714482
0.0005936753
0.0005194929
0.00044893
0.0003819965
0.0003186853
0.0002589738
0.0002028256
0.0001501922
0.0001010145
5.52241e-05
1.274448e-05
-2.650839e-05
-6.262455e-05
-9.569938e-05
-0.0001258335
-0.0001531311
-0.000177699
-0.0001996467
-0.0002190854
-0.0002361272
-0.0002508842
-0.0002634706
-0.0002740035
-0.0002826033
-0.0002893913
-0.000294491
-0.0002980312
-0.0003001471
-0.0003009747
-0.0003006415
-0.0002992626
-0.0002969494
-0.0002938093
-0.0002899469
-0.0002854956
-0.0002805454
-0.0002751543
-0.0002693566
-0.0002631766
-0.0002566387
-0.0002497647
-0.0002425672
-0.0002350514
-0.0002272315
-0.0002191255
-0.0002107412
-0.0002020782
-0.0001931241
-0.0001838474
-0.0001742054
-0.0001641484
-0.0001536204
-0.00014255
-0.0001308632
-0.0001184708
-0.0001052797
-9.118597e-05
-7.607555e-05
-5.982861e-05
-4.231217e-05
-2.338612e-05
-2.901784e-06
1.929314e-05
4.338225e-05
6.9554e-05
9.800932e-05
0.0001289746
0.0001627254
0.0001995681
0.0002398508
0.0002840058
0.000332548
0.0003860959
0.0004453631
0.0005112634
0.0005849455
0.0006678486
0.0007618142
0.0008692757
0.000993563
0.00113907
0.00131174
0.001519946
0.001775668
0.002096326
0.002507894
0.003049978
0.003784471
0.004810561
0.00629057
0.008495633
0.01188668
0.0172575
0.02598321
0.04042145
0.06453754
0.1045923
0.1673436
0.2625327
0.2384681
0.1276831
0.001417884
0.001661121
0.001943431
0.002188606
0.002406342
0.002609664
0.002801189
0.002979811
0.003144165
0.003292928
0.003424725
0.003538293
0.003632688
0.003707388
0.003762298
0.003797701
0.003814192
0.003812616
0.003794018
0.003759575
0.003710543
0.003648199
0.003573815
0.003488637
0.003393875
0.003290698
0.00318023
0.003063547
0.002941674
0.002815584
0.002686194
0.002554365
0.002420896
0.002286529
0.002151938
0.00201774
0.001884488
0.001752679
0.001622756
0.001495112
0.001370097
0.001248017
0.001129148
0.001013727
0.0009019653
0.0007940438
0.0006901167
0.000590311
0.0004947283
0.0004034443
0.0003165104
0.0002339542
0.0001557819
8.197968e-05
1.251585e-05
-5.265686e-05
-0.0001135995
-0.0001703852
-0.0002230978
-0.00027183
-0.0003166835
-0.0003577671
-0.000395196
-0.000429091
-0.0004595771
-0.0004867829
-0.0005108387
-0.000531877
-0.000550031
-0.0005654338
-0.0005782199
-0.0005885294
-0.0005965081
-0.000602302
-0.0006060608
-0.0006079488
-0.0006081423
-0.0006068124
-0.0006041158
-0.0006001789
-0.0005951123
-0.0005890282
-0.0005820342
-0.0005742225
-0.0005657131
-0.0005566409
-0.000547098
-0.0005371417
-0.0005268136
-0.0005161482
-0.0005051702
-0.0004938955
-0.0004823414
-0.0004705223
-0.0004584439
-0.0004460973
-0.0004334663
-0.0004205111
-0.0004071768
-0.0003934106
-0.0003791508
-0.0003643218
-0.000348847
-0.00033263
-0.0003155622
-0.0002975339
-0.0002784218
-0.0002580851
-0.0002363768
-0.0002131487
-0.0001882356
-0.0001614557
-0.0001326306
-0.0001015376
-6.795094e-05
-3.163532e-05
7.701871e-06
5.041039e-05
9.687404e-05
0.0001475437
0.0002029619
0.0002638085
0.000330863
0.0004051135
0.0004877883
0.0005804478
0.0006851108
0.0008044279
0.0009418724
0.001102073
0.001291339
0.001518359
0.001795351
0.00213999
0.002578266
0.003149188
0.003912783
0.00496351
0.006453243
0.008631128
0.01191295
0.01700173
0.02509432
0.0382145
0.05971701
0.09496653
0.1496349
0.2349841
0.2295596
0.1326441
0.00158257
0.00185377
0.002168148
0.002440801
0.002682769
0.002908724
0.003121628
0.00332023
0.00350295
0.003668233
0.003814472
0.00394021
0.004044384
0.004126448
0.004186355
0.004224481
0.004241544
0.004238541
0.004216692
0.00417736
0.004121985
0.004052019
0.003968895
0.003874008
0.003768707
0.003654293
0.003532013
0.003403057
0.003268557
0.003129586
0.002987153
0.002842205
0.002695617
0.002548199
0.002400687
0.00225375
0.002107987
0.001963932
0.001822061
0.001682792
0.001546499
0.001413508
0.00128411
0.001158559
0.001037079
0.0009198626
0.0008070737
0.0006988479
0.0005952924
0.0004964867
0.0004024835
0.0003133097
0.0002289685
0.0001494417
7.469176e-05
4.664438e-06
-6.070907e-05
-0.0001215105
-0.0001778331
-0.0002297798
-0.0002774634
-0.000321005
-0.0003605331
-0.0003961822
-0.000428091
-0.0004564019
-0.0004812588
-0.0005028079
-0.0005211958
-0.0005365677
-0.0005490709
-0.0005588625
-0.0005661083
-0.0005709722
-0.0005736269
-0.0005742757
-0.0005731476
-0.0005704518
-0.0005663847
-0.000561152
-0.0005548559
-0.0005475761
-0.0005393903
-0.0005303396
-0.0005205052
-0.0005099954
-0.0004989411
-0.0004874542
-0.0004756167
-0.0004634888
-0.0004511114
-0.0004385074
-0.0004256915
-0.0004126721
-0.0003994476
-0.0003860016
-0.0003723089
-0.0003583292
-0.0003440088
-0.0003292847
-0.0003140819
-0.0002983114
-0.0002818787
-0.0002646679
-0.0002465565
-0.0002274143
-0.0002070953
-0.0001854445
-0.0001622989
-0.0001374819
-0.0001108121
-8.209081e-05
-5.112039e-05
-1.766071e-05
1.855566e-05
5.777773e-05
0.0001003005
0.0001465037
0.0001968171
0.0002517158
0.0003117699
0.0003776966
0.0004503735
0.0005308686
0.0006205547
0.0007211365
0.0008347869
0.000964271
0.001113088
0.001286045
0.001489685
0.001732869
0.002027896
0.002392335
0.002851618
0.003443322
0.004224237
0.005282007
0.006754778
0.008864485
0.01197358
0.01668154
0.02398634
0.03554017
0.05399903
0.08349708
0.1277163
0.1906254
0.2177628
0.1141194
0.001746368
0.002045526
0.002392194
0.002692816
0.002959726
0.003209206
0.003444539
0.003664286
0.003866598
0.004049613
0.004211411
0.004350263
0.004464931
0.004554794
0.004619808
0.004660401
0.004677376
0.00467185
0.004645197
0.004598958
0.004534753
0.00445421
0.00435893
0.004250469
0.004130337
0.003999988
0.003860818
0.003714162
0.003561295
0.00340342
0.003241676
0.003077128
0.002910765
0.002743499
0.002576162
0.002409504
0.002244202
0.002080855
0.001919996
0.001762096
0.001607571
0.001456789
0.001310075
0.001167715
0.001029963
0.0008970357
0.0007691204
0.0006463715
0.0005289117
0.000416832
0.0003101932
0.0002090268
0.0001133377
2.310687e-05
-6.170605e-05
-0.0001411599
-0.0002153294
-0.0002843035
-0.0003481839
-0.0004070839
-0.0004611276
-0.0005104495
-0.0005551931
-0.0005955086
-0.0006315505
-0.0006634758
-0.0006914427
-0.0007156125
-0.0007361466
-0.0007532031
-0.0007669417
-0.0007775377
-0.0007851865
-0.0007900825
-0.0007924238
-0.0007924543
-0.0007904723
-0.0007867046
-0.0007813447
-0.0007745637
-0.0007664927
-0.0007572701
-0.0007470258
-0.0007358675
-0.0007238785
-0.0007111384
-0.0006977735
-0.0006839159
-0.0006696698
-0.0006551101
-0.0006402913
-0.0006252483
-0.0006100003
-0.0005945548
-0.0005789099
-0.0005630506
-0.0005469462
-0.0005305509
-0.0005138119
-0.0004966583
-0.0004790012
-0.0004607428
-0.0004417734
-0.0004219636
-0.0004011751
-0.000379266
-0.0003560725
-0.000331423
-0.0003051418
-0.0002770282
-0.0002468894
-0.0002145079
-0.0001796599
-0.0001421069
-0.0001015564
-5.772729e-05
-1.030614e-05
4.109425e-05
9.692178e-05
0.0001576947
0.0002240217
0.0002966506
0.0003764957
0.0004646866
0.0005626998
0.000672307
0.0007957588
0.0009359629
0.001096556
0.00128248
0.001500391
0.001759205
0.002071206
0.002453649
0.00293108
0.003539136
0.004330662
0.005385547
0.006826855
0.008847499
0.0117545
0.01604155
0.02250515
0.03241778
0.0477238
0.07119594
0.1045561
0.145088
0.1644804
0.07169958
0.00190896
0.002235993
0.002615058
0.002944028
0.003236511
0.003510372
0.003769197
0.004011343
0.00423465
0.00443691
0.004615838
0.004769401
0.004896168
0.004995444
0.005067198
0.005111912
0.005130472
0.005124124
0.00509441
0.005043069
0.004971919
0.004882776
0.004777419
0.00465758
0.004524933
0.004381095
0.004227618
0.004065985
0.003897606
0.003723817
0.003545878
0.003364967
0.003182176
0.00299851
0.002814883
0.00263212
0.002450956
0.002272043
0.00209596
0.001923213
0.001754249
0.001589464
0.001429206
0.001273783
0.001123467
0.0009784933
0.0008390625
0.0007053415
0.0005774623
0.0004555224
0.0003395853
0.0002296833
0.0001258193
2.797069e-05
-6.390789e-05
-0.0001498811
-0.0002300307
-0.0003044528
-0.0003732577
-0.0004365685
-0.0004945211
-0.0005472633
-0.000594954
-0.0006377594
-0.000675849
-0.0007093921
-0.0007385584
-0.0007635217
-0.0007844508
-0.000801511
-0.0008148756
-0.000824739
-0.0008313451
-0.0008349207
-0.0008357359
-0.0008341253
-0.0008305094
-0.0008250867
-0.0008179091
-0.0008089777
-0.0007984982
-0.000786728
-0.0007738828
-0.0007601263
-0.0007455865
-0.0007303789
-0.0007146169
-0.0006984189
-0.0006818853
-0.000665089
-0.0006480871
-0.0006309223
-0.0006136188
-0.0005961841
-0.0005786154
-0.0005608957
-0.0005429896
-0.0005248428
-0.0005063948
-0.0004875671
-0.0004682581
-0.0004483542
-0.0004277306
-0.000406249
-0.0003837462
-0.0003600573
-0.0003350111
-0.0003084128
-0.0002800561
-0.0002497339
-0.0002172303
-0.0001823031
-0.0001447077
-0.0001041914
-6.044674e-05
-1.317063e-05
3.797923e-05
9.341799e-05
0.0001535916
0.0002190381
0.0002904183
0.0003685178
0.0004542718
0.0005488528
0.0006537931
0.0007709294
0.0009026249
0.001051957
0.001222839
0.001420228
0.001650676
0.001923118
0.002249718
0.002647262
0.003139291
0.003759372
0.004556257
0.005601986
0.007004795
0.008929797
0.01163179
0.01550648
0.02116696
0.02954456
0.04197438
0.06009867
0.08444669
0.1104573
0.1211231
0.06630314
0.002069846
0.002424573
0.00283601
0.003193584
0.003512169
0.003811197
0.004094551
0.004360365
0.004606138
0.004829256
0.005027008
0.00519699
0.005337524
0.005447806
0.00552778
0.005577934
0.005599192
0.005592887
0.005560711
0.00550459
0.005426536
0.00532855
0.005212591
0.005080567
0.004934331
0.004775674
0.004606311
0.004427884
0.004241955
0.004050005
0.003853429
0.003653531
0.003451525
0.003248523
0.00304554
0.002843485
0.002643173
0.002445322
0.002250567
0.002059464
0.001872504
0.00169012
0.001512696
0.001340572
0.001174049
0.001013388
0.0008588161
0.0007105198
0.0005686487
0.0004333137
0.0003045878
0.0001825095
6.708521e-05
-4.17062e-05
-0.0001439102
-0.0002395929
-0.0003288382
-0.0004117455
-0.0004884296
-0.0005590205
-0.0006236635
-0.0006825184
-0.0007357585
-0.0007835662
-0.0008261237
-0.0008636076
-0.000896191
-0.0009240515
-0.0009473694
-0.0009663204
-0.0009810853
-0.0009918532
-0.0009989239
-0.001002641
-0.001003361
-0.001001471
-0.000997246
-0.0009908405
-0.0009823843
-0.0009719969
-0.0009599477
-0.0009465237
-0.000931961
-0.0009164416
-0.0009001129
-0.0008831045
-0.0008655313
-0.0008475039
-0.0008291232
-0.000810469
-0.0007916044
-0.0007725798
-0.0007534271
-0.0007341602
-0.000714777
-0.000695259
-0.0006755702
-0.0006556529
-0.0006354351
-0.000614832
-0.0005937347
-0.000572016
-0.0005495348
-0.0005261375
-0.0005016456
-0.0004758732
-0.0004486298
-0.0004197032
-0.0003888668
-0.0003558966
-0.0003205478
-0.0002825656
-0.0002416907
-0.0001976439
-0.000150106
-9.875501e-05
-4.323386e-05
1.689739e-05
8.210782e-05
0.0001529403
0.0002300795
0.0003143501
0.0004067317
0.0005084296
0.0006209879
0.0007463243
0.0008869017
0.001045824
0.001227139
0.001435934
0.001678786
0.001964563
0.002305251
0.002717202
0.00322301
0.003854333
0.004656169
0.005693521
0.007061559
0.008901242
0.01142281
0.01494008
0.01991658
0.0270147
0.0371102
0.05112187
0.06910143
0.08735009
0.09642631
0.0713984
0.002228372
0.002610491
0.003054121
0.003440407
0.003785494
0.004110373
0.004419229
0.004709976
0.004979751
0.005225493
0.005443998
0.005632423
0.00578879
0.005912144
0.006002365
0.006059899
0.006085654
0.006081022
0.006047835
0.005988211
0.00590436
0.005798486
0.005672748
0.005529258
0.005370074
0.005197183
0.005012488
0.004817809
0.004614874
0.00440532
0.004190686
0.003972417
0.003751849
0.003530214
0.003308627
0.003088091
0.002869495
0.002653627
0.002441175
0.002232743
0.002028861
0.001829995
0.001636562
0.001448927
0.001267417
0.001092317
0.0009238744
0.0007622931
0.0006077368
0.0004603262
0.0003201407
0.0001872214
6.157551e-05
-5.681903e-05
-0.0001680099
-0.000272066
-0.0003690744
-0.0004591382
-0.0005423774
-0.0006189296
-0.0006889514
-0.000752618
-0.0008101205
-0.0008616572
-0.0009074161
-0.0009475679
-0.0009822915
-0.001011784
-0.001036241
-0.001055827
-0.001070708
-0.001081179
-0.001087621
-0.001090416
-0.001090017
-0.001086807
-0.001080758
-0.001072101
-0.001061192
-0.001048341
-0.001033831
-0.001017918
-0.001000825
-0.0009827427
-0.0009638405
-0.0009442614
-0.0009241404
-0.0009035943
-0.0008827294
-0.0008616351
-0.0008403813
-0.0008190222
-0.000797595
-0.0007761175
-0.0007545875
-0.0007329854
-0.0007112701
-0.0006893823
-0.0006672415
-0.0006447502
-0.0006217894
-0.0005982209
-0.0005738871
-0.0005486119
-0.0005222023
-0.0004944544
-0.0004651495
-0.0004340541
-0.0004009247
-0.0003655153
-0.0003275508
-0.0002867639
-0.0002428784
-0.0001955841
-0.0001445608
-8.946388e-05
-2.990687e-05
3.454565e-05
0.00010439
0.0001801939
0.0002626498
0.0003525959
0.0004510573
0.0005592765
0.0006788038
0.0008116398
0.0009602637
0.001127829
0.00131847
0.001537487
0.001791686
0.002089709
0.002443353
0.002868608
0.003387293
0.004029535
0.004837341
0.005870147
0.00721291
0.008987881
0.01137142
0.01461643
0.01907821
0.02523276
0.0336536
0.04486411
0.05879006
0.07310438
0.08276503
0.07486871
0.002383761
0.002792828
0.003268292
0.003683225
0.004055048
0.004406315
0.004741536
0.005058426
0.005353763
0.005624009
0.005865413
0.00607461
0.006249239
0.006388121
0.006490998
0.00655819
0.006590516
0.006589373
0.006556712
0.006494831
0.006406145
0.006293062
0.006157957
0.006003168
0.005830977
0.005643586
0.005443101
0.005231532
0.005010786
0.004782666
0.004548873
0.004310997
0.004070516
0.00382879
0.003587049
0.003346399
0.003107817
0.002872166
0.002640198
0.002412571
0.002189858
0.001972567
0.001761148
0.001556
0.001357481
0.001165903
0.0009815384
0.0008046133
0.0006353093
0.0004737604
0.000320055
0.00017424
3.632621e-05
-9.370664e-05
-0.0002159055
-0.000330339
-0.0004370939
-0.0005362735
-0.0006280003
-0.0007124185
-0.0007896958
-0.0008600208
-0.0009235978
-0.0009806363
-0.001031311
-0.001075791
-0.001114278
-0.001146994
-0.001174133
-0.001195779
-0.001212188
-0.001223771
-0.001230933
-0.001234051
-0.001233588
-0.001229808
-0.001222822
-0.00121302
-0.001200837
-0.001186626
-0.001170669
-0.001153215
-0.001134495
-0.00111472
-0.001094081
-0.00107274
-0.001050847
-0.00102853
-0.001005904
-0.0009830643
-0.0009600858
-0.0009370286
-0.000913934
-0.0008908233
-0.0008676965
-0.000844533
-0.0008212896
-0.0007979032
-0.000774287
-0.0007503322
-0.0007259103
-0.0007008694
-0.0006750345
-0.0006482116
-0.0006201925
-0.000590746
-0.0005596292
-0.0005265887
-0.0004913603
-0.0004536695
-0.0004132212
-0.0003697266
-0.0003228903
-0.0002723873
-0.0002178807
-0.0001590038
-9.535883e-05
-2.650532e-05
4.807248e-05
0.0001289682
0.0002168825
0.0003126611
0.0004173618
0.0005322486
0.0006589097
0.0007993964
0.0009562027
0.001132556
0.001332643
0.001561843
0.001827118
0.002137208
0.002503762
0.002942541
0.003474898
0.004129979
0.004947919
0.005984525
0.007318064
0.009058713
0.01136118
0.01444013
0.01858482
0.02416226
0.03158141
0.04115944
0.05280324
0.0652013
0.07528533
0.07578785
0.002535148
0.002970558
0.003477293
0.003920604
0.004319199
0.004697196
0.005059475
0.0054036
0.005726023
0.006022737
0.006289397
0.006522036
0.006717803
0.006875189
0.006993687
0.007073377
0.007114874
0.007119502
0.007089293
0.007026727
0.006934437
0.006815071
0.006671264
0.006505622
0.006320692
0.00611892
0.005902639
0.005674068
0.00543531
0.005188353
0.00493507
0.004677218
0.004416432
0.004154212
0.003891922
0.003630779
0.00337186
0.003116108
0.002864345
0.002617283
0.002375542
0.002139668
0.001910145
0.001687405
0.001471833
0.001263769
0.001063507
0.000871297
0.0006873344
0.0005117648
0.0003446831
0.0001861394
3.614555e-05
-0.0001053186
-0.000238301
-0.0003628719
-0.0004791187
-0.0005871455
-0.0006870777
-0.000779067
-0.0008632893
-0.0009399427
-0.001009242
-0.001071401
-0.001126582
-0.001174968
-0.001216791
-0.001252294
-0.001281663
-0.00130492
-0.001322424
-0.00133464
-0.001341992
-0.001344838
-0.001343554
-0.001338404
-0.001329807
-0.001318251
-0.001304168
-0.001287915
-0.001269796
-0.001250086
-0.001229041
-0.001206892
-0.001183847
-0.00116009
-0.001135779
-0.001111056
-0.001086047
-0.001060857
-0.001035569
-0.001010251
-0.0009849502
-0.0009596924
-0.0009344813
-0.0009092969
-0.000884095
-0.0008588073
-0.0008333414
-0.0008075797
-0.000781381
-0.0007545798
-0.0007269829
-0.0006983762
-0.0006685317
-0.0006371936
-0.0006040908
-0.0005689505
-0.0005314821
-0.0004913814
-0.0004483388
-0.0004020386
-0.0003521552
-0.0002983539
-0.000240289
-0.0001775784
-0.0001097966
-3.650606e-05
4.280727e-05
0.0001287832
0.0002221114
0.0003236451
0.0004344638
0.000555862
0.0006894585
0.0008373065
0.001001957
0.001186712
0.001395769
0.001634583
0.001910271
0.002231952
0.002611183
0.00306368
0.003610703
0.004281116
0.005114415
0.006165032
0.007508508
0.00925008
0.01153561
0.01456419
0.01859875
0.02396424
0.03100929
0.03998541
0.05077623
0.06246652
0.0728073
0.07656998
0.002681618
0.003142597
0.00367982
0.004151014
0.004576177
0.004981004
0.005370799
0.005743054
0.006093968
0.006419109
0.006713534
0.006972592
0.007192802
0.007372164
0.007509779
0.007605358
0.007659194
0.007672432
0.007647108
0.00758585
0.00749152
0.007367036
0.007215339
0.007039361
0.006841953
0.006625837
0.006393596
0.006147676
0.005890396
0.005623942
0.005350378
0.005071644
0.00478955
0.004505762
0.004221789
0.003938979
0.00365852
0.00338145
0.003108663
0.002840933
0.00257893
0.002323239
0.002074379
0.001832813
0.001598952
0.001373165
0.001155769
0.0009470336