# Force coefficients
# dragDir      : (1.0000000e+00 0.0000000e+00 0.0000000e+00)
# sideDir      : (0.0000000e+00 0.0000000e+00 -1.0000000e+00)
# liftDir      : (0.0000000e+00 1.0000000e+00 0.0000000e+00)
# rollAxis     : (1.0000000e+00 0.0000000e+00 0.0000000e+00)
# pitchAxis    : (0.0000000e+00 0.0000000e+00 -1.0000000e+00)
# yawAxis      : (0.0000000e+00 1.0000000e+00 0.0000000e+00)
# magUInf      : 1.0000000e+00
# lRef         : 6.0000000e-01
# Aref         : 1.3437500e+01
# CofR         : (0.0000000e+00 0.0000000e+00 0.0000000e+00)
#
# Time         	Cd             	Cs             	Cl             	CmRoll         	CmPitch        	CmYaw          	Cd(f)          	Cd(r)          	Cs(f)          	Cs(r)          	Cl(f)          	Cl(r)          
1              	8.7249055e-04	-2.6734504e-06	6.7710143e-06	7.7860438e-04	1.3552155e-05	1.5730882e-05	1.2148497e-03	-3.4235911e-04	1.4394157e-05	-1.7067607e-05	1.6937662e-05	-1.0166648e-05
2              	2.2402975e-03	-8.7652678e-05	3.2513798e-05	1.5914884e-03	1.2455925e-04	3.1972538e-05	2.7116372e-03	-4.7133971e-04	-1.1853801e-05	-7.5798877e-05	1.4081614e-04	-1.0830235e-04
3              	5.0481068e-03	-2.0135497e-04	4.5659526e-05	2.9579579e-03	1.8274677e-04	5.8744469e-05	5.4820113e-03	-4.3390448e-04	-4.1933016e-05	-1.5942195e-04	2.0557653e-04	-1.5991701e-04
4              	8.4812609e-03	-2.5759294e-04	6.0499834e-05	4.3078266e-03	2.1683420e-04	1.1721673e-04	8.5484571e-03	-6.7196161e-05	-1.1579740e-05	-2.4601320e-04	2.4708412e-04	-1.8658429e-04
5              	1.2459602e-02	-2.6002068e-04	8.2388818e-05	5.5713066e-03	2.4399914e-04	2.0265696e-04	1.1801107e-02	6.5849434e-04	7.2646618e-05	-3.3266730e-04	2.8519355e-04	-2.0280473e-04
6              	1.7086960e-02	-2.3787716e-04	1.0803729e-04	6.7762644e-03	2.6075397e-04	2.9226669e-04	1.5319745e-02	1.7672157e-03	1.7332812e-04	-4.1120527e-04	3.1477261e-04	-2.0673532e-04
7              	2.2347493e-02	-2.0716977e-04	1.3427165e-04	7.8993401e-03	2.6110763e-04	3.6645176e-04	1.9073087e-02	3.2744065e-03	2.6286687e-04	-4.7003664e-04	3.2824345e-04	-1.9397180e-04
8              	2.8086268e-02	-1.7297969e-04	1.5966003e-04	8.8945530e-03	2.4410808e-04	4.1775109e-04	2.2937687e-02	5.1485810e-03	3.3126124e-04	-5.0424093e-04	3.2393809e-04	-1.6427806e-04
9              	3.4105857e-02	-1.3890809e-04	1.8352498e-04	9.7407816e-03	2.1198029e-04	4.4278757e-04	2.6793710e-02	7.3121468e-03	3.7333353e-04	-5.1224162e-04	3.0374278e-04	-1.2021780e-04
10             	4.0227725e-02	-1.0766830e-04	2.0553292e-04	1.0447985e-02	1.6745220e-04	4.4571144e-04	3.0561847e-02	9.6658780e-03	3.9187730e-04	-4.9954559e-04	2.7021865e-04	-6.4685736e-05
11             	4.6304852e-02	-8.1528077e-05	2.2550236e-04	1.1042034e-02	1.1372946e-04	4.3298802e-04	3.4194460e-02	1.2110392e-02	3.9222398e-04	-4.7375206e-04	2.2648063e-04	-9.7827729e-07
12             	5.2218697e-02	-6.1253127e-05	2.4370042e-04	1.1547003e-02	5.4983831e-05	4.1315309e-04	3.7656352e-02	1.4562345e-02	3.8252652e-04	-4.4377965e-04	1.7683404e-04	6.6866381e-05
13             	5.7875906e-02	-4.7239645e-05	2.6029390e-04	1.1979977e-02	-5.2074722e-06	3.9036188e-04	4.0917930e-02	1.6957976e-02	3.6674206e-04	-4.1398170e-04	1.2493948e-04	1.3535442e-04
14             	6.3213506e-02	1.8014403e-05	2.7376940e-04	1.2352562e-02	-7.4984390e-05	4.9400520e-04	4.3959315e-02	1.9254191e-02	5.0301240e-04	-4.8499800e-04	6.1900312e-05	2.1186909e-04
15             	6.8190714e-02	1.9549395e-05	2.8541814e-04	1.2676879e-02	-1.3478495e-04	4.5990879e-04	4.6772236e-02	2.1418478e-02	4.6968349e-04	-4.5013410e-04	7.9241187e-06	2.7749402e-04
16             	7.2785248e-02	6.8783223e-05	2.9543100e-04	1.2952971e-02	-1.9284803e-04	6.0259338e-04	4.9345595e-02	2.3439653e-02	6.3698499e-04	-5.6820177e-04	-4.5132529e-05	3.4056353e-04
17             	7.6999103e-02	1.0996521e-04	3.0276971e-04	1.3191922e-02	-2.4430646e-04	7.4335481e-04	5.1691473e-02	2.5307630e-02	7.9833741e-04	-6.8837221e-04	-9.2921609e-05	3.9569131e-04
18             	8.0840052e-02	1.4438299e-04	3.0854439e-04	1.3396429e-02	-2.8650984e-04	8.9296674e-04	5.3816455e-02	2.7023597e-02	9.6515824e-04	-8.2077525e-04	-1.3223764e-04	4.4078204e-04
19             	8.4322373e-02	1.3925244e-04	3.1493784e-04	1.3569661e-02	-3.1370848e-04	9.2013469e-04	5.5730847e-02	2.8591526e-02	9.8976091e-04	-8.5050847e-04	-1.5623956e-04	4.7117740e-04
20             	8.7474176e-02	1.5706184e-04	3.2015389e-04	1.3713282e-02	-3.3544610e-04	1.0683874e-03	5.7450370e-02	3.0023806e-02	1.1469183e-03	-9.8985650e-04	-1.7536916e-04	4.9552305e-04
21             	9.0326872e-02	1.6958662e-04	3.2315980e-04	1.3835602e-02	-3.5068709e-04	1.1959683e-03	5.8999038e-02	3.1327835e-02	1.2807616e-03	-1.1111750e-03	-1.8910719e-04	5.1226700e-04
22             	9.2903317e-02	1.7757550e-04	3.2503555e-04	1.3937719e-02	-3.6041301e-04	1.3082329e-03	6.0389378e-02	3.2513940e-02	1.3970207e-03	-1.2194452e-03	-1.9789524e-04	5.2293078e-04
23             	9.5225992e-02	1.8063438e-04	3.2650777e-04	1.4021590e-02	-3.6573522e-04	1.4020035e-03	6.1634586e-02	3.3591406e-02	1.4923207e-03	-1.3116864e-03	-2.0248133e-04	5.2898910e-04
24             	9.7317808e-02	1.7901730e-04	3.2772193e-04	1.4089683e-02	-3.6672768e-04	1.4761686e-03	6.2748587e-02	3.4569220e-02	1.5656772e-03	-1.3866599e-03	-2.0286672e-04	5.3058865e-04
25             	9.9199161e-02	1.7550025e-04	3.2823490e-04	1.4143576e-02	-3.6347673e-04	1.5478504e-03	6.3743157e-02	3.5456005e-02	1.6356005e-03	-1.4601003e-03	-1.9935928e-04	5.2759418e-04
26             	1.0093488e-01	1.5586857e-04	3.2969395e-04	1.4188247e-02	-3.9196133e-04	1.5183458e-03	6.4655688e-02	3.6279194e-02	1.5962801e-03	-1.4404115e-03	-2.2711435e-04	5.5680831e-04
27             	1.0247806e-01	1.3380483e-04	3.3565975e-04	1.4222227e-02	-4.5893997e-04	1.4686220e-03	6.5461256e-02	3.7016802e-02	1.5355244e-03	-1.4017195e-03	-2.9111010e-04	6.2676985e-04
28             	1.0386113e-01	1.1292985e-04	3.4229056e-04	1.4249243e-02	-5.3405817e-04	1.4169255e-03	6.6179809e-02	3.7681323e-02	1.4733904e-03	-1.3604605e-03	-3.6291289e-04	7.0520345e-04
29             	1.0510298e-01	9.4927757e-05	3.4776349e-04	1.4271065e-02	-6.0145773e-04	1.3721023e-03	6.6822554e-02	3.8280425e-02	1.4195662e-03	-1.3246384e-03	-4.2757599e-04	7.7533947e-04
30             	1.0621987e-01	7.9979814e-05	3.5171656e-04	1.4288850e-02	-6.5646511e-04	1.3369129e-03	6.7398787e-02	3.8821087e-02	1.3769028e-03	-1.2969230e-03	-4.8060683e-04	8.3232339e-04
31             	1.0722584e-01	6.7829301e-05	3.5436124e-04	1.4303492e-02	-6.9958594e-04	1.3128011e-03	6.7916411e-02	3.9309428e-02	1.3467157e-03	-1.2788864e-03	-5.2240531e-04	8.7676656e-04
32             	1.0813038e-01	5.7788597e-05	3.5602624e-04	1.4315647e-02	-7.3281135e-04	1.2946904e-03	6.8380835e-02	3.9749542e-02	1.3235847e-03	-1.2657961e-03	-5.5479823e-04	9.1082447e-04
33             	1.0894283e-01	4.9520869e-05	3.5662665e-04	1.4325876e-02	-7.5318272e-04	1.2821452e-03	6.8797291e-02	4.0145538e-02	1.3069056e-03	-1.2573847e-03	-5.7486939e-04	9.3149604e-04
34             	1.0967027e-01	4.2567799e-05	3.5627340e-04	1.4334560e-02	-7.6104474e-04	1.2721573e-03	6.9169693e-02	4.0500573e-02	1.2934412e-03	-1.2508734e-03	-5.8290804e-04	9.3918144e-04
35             	1.1031765e-01	3.6410888e-05	3.5496583e-04	1.4341954e-02	-7.5522710e-04	1.2601845e-03	6.9500780e-02	4.0816871e-02	1.2783900e-03	-1.2419791e-03	-5.7774418e-04	9.3271002e-04
36             	1.1089236e-01	3.1087403e-05	3.5273030e-04	1.4348309e-02	-7.3516122e-04	1.2496818e-03	6.9794491e-02	4.1097873e-02	1.2652255e-03	-1.2341381e-03	-5.5879607e-04	9.1152637e-04
37             	1.1139965e-01	2.6419079e-05	3.4973657e-04	1.4353742e-02	-7.0271420e-04	1.2400321e-03	7.0053565e-02	4.1346082e-02	1.2532416e-03	-1.2268226e-03	-5.2784591e-04	8.7758248e-04
38             	1.1184430e-01	2.2159497e-05	3.4605979e-04	1.4358378e-02	-6.5829292e-04	1.2290543e-03	7.0280528e-02	4.1563772e-02	1.2401340e-03	-1.2179745e-03	-4.8526302e-04	8.3132281e-04
39             	1.1223212e-01	1.8294194e-05	3.4189853e-04	1.4362340e-02	-6.0463731e-04	1.2178926e-03	7.0478400e-02	4.1753720e-02	1.2270397e-03	-1.2087455e-03	-4.3368805e-04	7.7558657e-04
40             	1.1256880e-01	1.4748120e-05	3.3746927e-04	1.4365722e-02	-5.4494238e-04	1.2062889e-03	7.0650123e-02	4.1918678e-02	1.2136629e-03	-1.1989148e-03	-3.7620774e-04	7.1367701e-04
41             	1.1285876e-01	1.1431649e-05	3.3295205e-04	1.4368581e-02	-4.8189340e-04	1.1934733e-03	7.0797963e-02	4.2060802e-02	1.1991891e-03	-1.1877575e-03	-3.1541738e-04	6.4836943e-04
42             	1.1310651e-01	8.2817582e-06	3.2850299e-04	1.4370983e-02	-4.1795579e-04	1.1789212e-03	7.0924239e-02	4.2182272e-02	1.1830621e-03	-1.1747804e-03	-2.5370430e-04	5.8220729e-04
43             	1.1331663e-01	5.2207050e-06	3.2422704e-04	1.4372997e-02	-3.5484225e-04	1.1618127e-03	7.1031314e-02	4.2285321e-02	1.1644231e-03	-1.1592024e-03	-1.9272873e-04	5.1695577e-04
44             	1.1349381e-01	2.1904233e-06	3.2020626e-04	1.4374676e-02	-2.9397959e-04	1.1415229e-03	7.1121583e-02	4.2372230e-02	1.1426181e-03	-1.1404277e-03	-1.3387646e-04	4.5408272e-04
45             	1.1364197e-01	-8.4772378e-07	3.1651518e-04	1.4376068e-02	-2.3670895e-04	1.1176692e-03	7.1197052e-02	4.2444916e-02	1.1172453e-03	-1.1180931e-03	-7.8451364e-05	3.9496654e-04
46             	1.1376552e-01	-3.9067614e-06	3.1320856e-04	1.4377224e-02	-1.8409670e-04	1.0902390e-03	7.1259982e-02	4.2505535e-02	1.0882856e-03	-1.0921924e-03	-2.7492415e-05	3.4070098e-04
47             	1.1386807e-01	-6.9694363e-06	3.1033476e-04	1.4378177e-02	-1.3714868e-04	1.0596837e-03	7.1312210e-02	4.2555857e-02	1.0561990e-03	-1.0631684e-03	1.8018706e-05	2.9231606e-04
48             	1.1395305e-01	-1.0007448e-05	3.0792137e-04	1.4378965e-02	-9.6540244e-05	1.0266733e-03	7.1355492e-02	4.2597561e-02	1.0216696e-03	-1.0316770e-03	5.7420439e-05	2.5050093e-04
49             	1.1402348e-01	-1.2972529e-05	3.0597056e-04	1.4379619e-02	-6.2561280e-05	9.9220448e-04	7.1391360e-02	4.2632122e-02	9.8571821e-04	-9.9869074e-04	9.0424002e-05	2.1554656e-04
50             	1.1408203e-01	-1.5808943e-05	3.0446717e-04	1.4380166e-02	-3.5192608e-05	9.5743096e-04	7.1421181e-02	4.2660849e-02	9.4952648e-04	-9.6533543e-04	1.1704098e-04	1.8742619e-04
51             	1.1413098e-01	-1.8458585e-05	3.0338026e-04	1.4380628e-02	-1.4139346e-05	9.2355435e-04	7.1446118e-02	4.2684862e-02	9.1432506e-04	-9.3278364e-04	1.3755078e-04	1.6582948e-04
52             	1.1417223e-01	-2.0865142e-05	3.0266748e-04	1.4381022e-02	1.1009984e-06	8.9175042e-04	7.1467138e-02	4.2705095e-02	8.8131785e-04	-9.0218300e-04	1.5243474e-04	1.5023274e-04
53             	1.1420731e-01	-2.2988308e-05	3.0227997e-04	1.4381360e-02	1.1165222e-05	8.6294311e-04	7.1485013e-02	4.2722292e-02	8.5144896e-04	-8.7443727e-04	1.6230521e-04	1.3997476e-04
54             	1.1423743e-01	-2.4802339e-05	3.0216389e-04	1.4381654e-02	1.6799060e-05	8.3781340e-04	7.1500371e-02	4.2737063e-02	8.2541223e-04	-8.5021457e-04	1.6788100e-04	1.3428288e-04
55             	1.1426358e-01	-2.6300294e-05	3.0226573e-04	1.4381912e-02	1.8771814e-05	8.1671863e-04	7.1513704e-02	4.2749881e-02	8.0356848e-04	-8.2986878e-04	1.6990468e-04	1.3236105e-04
56             	1.1428650e-01	-2.7493970e-05	3.0253326e-04	1.4382138e-02	1.7859402e-05	7.9968807e-04	7.1525388e-02	4.2761113e-02	7.8594108e-04	-8.1343505e-04	1.6912603e-04	1.3340723e-04
57             	1.1430676e-01	-2.8408670e-05	3.0291936e-04	1.4382337e-02	1.4778648e-05	7.8650371e-04	7.1535719e-02	4.2771044e-02	7.7229937e-04	-8.0070804e-04	1.6623833e-04	1.3668103e-04
58             	1.1432479e-01	-2.9078837e-05	3.0338210e-04	1.4382513e-02	1.0179369e-05	7.7676580e-04	7.1544910e-02	4.2779884e-02	7.6222638e-04	-7.9130522e-04	1.6187042e-04	1.4151168e-04
59             	1.1434093e-01	-2.9543559e-05	3.0388758e-04	1.4382668e-02	4.6039128e-06	7.6996990e-04	7.1553136e-02	4.2787799e-02	7.5519812e-04	-7.8474168e-04	1.5654770e-04	1.4733988e-04
60             	1.1435543e-01	-2.9842208e-05	3.0440860e-04	1.4382805e-02	-1.5039514e-06	7.6557943e-04	7.1560521e-02	4.2794911e-02	7.5065833e-04	-7.8050054e-04	1.5070035e-04	1.5370825e-04
61             	1.1436847e-01	-3.0011932e-05	3.0492409e-04	1.4382925e-02	-7.7902842e-06	7.6307182e-04	7.1567162e-02	4.2801312e-02	7.4806585e-04	-7.7807778e-04	1.4467176e-04	1.6025233e-04
62             	1.1438022e-01	-3.0085801e-05	3.0541840e-04	1.4383030e-02	-1.3982112e-05	7.6197208e-04	7.1573140e-02	4.2807080e-02	7.4692918e-04	-7.7701498e-04	1.3872709e-04	1.6669131e-04
63             	1.1439080e-01	-3.0091588e-05	3.0588097e-04	1.4383122e-02	-1.9885394e-05	7.6187611e-04	7.1578523e-02	4.2812280e-02	7.4683032e-04	-7.7692190e-04	1.3305509e-04	1.7282588e-04
64             	1.1440033e-01	-3.0051443e-05	3.0630526e-04	1.4383202e-02	-2.5370864e-05	7.6245865e-04	7.1583368e-02	4.2816964e-02	7.4743293e-04	-7.7748437e-04	1.2778177e-04	1.7852350e-04
65             	1.1440890e-01	-2.9982211e-05	3.0668684e-04	1.4383272e-02	-3.0344512e-05	7.6347046e-04	7.1587723e-02	4.2821178e-02	7.4847936e-04	-7.7846157e-04	1.2299891e-04	1.8368793e-04
66             	1.1441659e-01	-2.9896291e-05	3.0702375e-04	1.4383333e-02	-3.4753996e-05	7.6472788e-04	7.1591629e-02	4.2824962e-02	7.4977974e-04	-7.7967603e-04	1.1875788e-04	1.8826587e-04
67             	1.1442350e-01	-2.9802996e-05	3.0731820e-04	1.4383386e-02	-3.8613563e-05	7.6609314e-04	7.1595135e-02	4.2828362e-02	7.5119164e-04	-7.8099464e-04	1.1504554e-04	1.9227266e-04
68             	1.1442969e-01	-2.9707485e-05	3.0757515e-04	1.4383433e-02	-4.1981460e-05	7.6748863e-04	7.1598279e-02	4.2831413e-02	7.5263489e-04	-7.8234237e-04	1.1180611e-04	1.9576903e-04
69             	1.1443525e-01	-2.9613728e-05	3.0779867e-04	1.4383474e-02	-4.4906153e-05	7.6885518e-04	7.1601098e-02	4.2834151e-02	7.5404831e-04	-7.8366204e-04	1.0899318e-04	1.9880549e-04
70             	1.1444023e-01	-2.9524406e-05	3.0799305e-04	1.4383509e-02	-4.7442456e-05	7.7015335e-04	7.1603626e-02	4.2836608e-02	7.5539115e-04	-7.8491555e-04	1.0655407e-04	2.0143898e-04
71             	1.1444470e-01	-2.9440596e-05	3.0816193e-04	1.4383541e-02	-4.9637156e-05	7.7136744e-04	7.1605888e-02	4.2838807e-02	7.5664714e-04	-7.8608774e-04	1.0444381e-04	2.0371812e-04
72             	1.1444869e-01	-2.9363478e-05	3.0830817e-04	1.4383568e-02	-5.1527532e-05	7.7248104e-04	7.1607913e-02	4.2840777e-02	7.5779930e-04	-7.8716278e-04	1.0262655e-04	2.0568162e-04
73             	1.1445225e-01	-2.9293267e-05	3.0843401e-04	1.4383592e-02	-5.3143318e-05	7.7349213e-04	7.1609718e-02	4.2842535e-02	7.5884550e-04	-7.8813876e-04	1.0107369e-04	2.0736032e-04
74             	1.1445545e-01	-2.9229579e-05	3.0854295e-04	1.4383613e-02	-5.4531293e-05	7.7440673e-04	7.1611339e-02	4.2844113e-02	7.5979194e-04	-7.8902152e-04	9.9740184e-05	2.0880277e-04
75             	1.1445832e-01	-2.9172024e-05	3.0863716e-04	1.4383631e-02	-5.5720939e-05	7.7523115e-04	7.1612791e-02	4.2845529e-02	7.6064514e-04	-7.8981716e-04	9.8597643e-05	2.1003952e-04
76             	1.1446088e-01	-2.9120148e-05	3.0871816e-04	1.4383647e-02	-5.6733649e-05	7.7597279e-04	7.1614088e-02	4.2846794e-02	7.6141272e-04	-7.9053286e-04	9.7625430e-05	2.1109273e-04
77             	1.1446317e-01	-2.9073562e-05	3.0878695e-04	1.4383661e-02	-5.7582154e-05	7.7663793e-04	7.1615248e-02	4.2847926e-02	7.6210115e-04	-7.9117471e-04	9.6811321e-05	2.1197563e-04
78             	1.1446523e-01	-2.9031748e-05	3.0884569e-04	1.4383673e-02	-5.8297132e-05	7.7723462e-04	7.1616286e-02	4.2848939e-02	7.6271874e-04	-7.9175049e-04	9.6125712e-05	2.1271998e-04
79             	1.1446706e-01	-2.8994399e-05	3.0889662e-04	1.4383684e-02	-5.8911165e-05	7.7776748e-04	7.1617213e-02	4.2849845e-02	7.6327029e-04	-7.9226468e-04	9.5537147e-05	2.1335948e-04
80             	1.1446870e-01	-2.8961275e-05	3.0894140e-04	1.4383693e-02	-5.9447528e-05	7.7823995e-04	7.1618044e-02	4.2850657e-02	7.6375931e-04	-7.9272058e-04	9.5023174e-05	2.1391823e-04
81             	1.1447017e-01	-2.8931697e-05	3.0898135e-04	1.4383701e-02	-5.9924382e-05	7.7866170e-04	7.1618787e-02	4.2851384e-02	7.6419585e-04	-7.9312755e-04	9.4566293e-05	2.1441506e-04
82             	1.1447148e-01	-2.8905303e-05	3.0901658e-04	1.4383708e-02	-6.0342338e-05	7.7903799e-04	7.1619449e-02	4.2852032e-02	7.6458534e-04	-7.9349064e-04	9.4165953e-05	2.1485063e-04
83             	1.1447265e-01	-2.8881869e-05	3.0904718e-04	1.4383715e-02	-6.0701570e-05	7.7937212e-04	7.1620040e-02	4.2852611e-02	7.6493118e-04	-7.9381305e-04	9.3822021e-05	2.1522516e-04
84             	1.1447369e-01	-2.8861177e-05	3.0907365e-04	1.4383720e-02	-6.1008846e-05	7.7966725e-04	7.1620565e-02	4.2853125e-02	7.6523666e-04	-7.9409784e-04	9.3527978e-05	2.1554567e-04
85             	1.1447462e-01	-2.8842843e-05	3.0909663e-04	1.4383725e-02	-6.1272406e-05	7.7992884e-04	7.1621034e-02	4.2853584e-02	7.6550742e-04	-7.9435027e-04	9.3275907e-05	2.1582072e-04
86             	1.1447545e-01	-2.8826487e-05	3.0911547e-04	1.4383729e-02	-6.1481424e-05	7.8016246e-04	7.1621453e-02	4.2853995e-02	7.6574922e-04	-7.9457571e-04	9.3076308e-05	2.1603916e-04
87             	1.1447619e-01	-2.8811762e-05	3.0912952e-04	1.4383733e-02	-6.1625425e-05	7.8037315e-04	7.1621827e-02	4.2854361e-02	7.6596727e-04	-7.9477903e-04	9.2939335e-05	2.1619018e-04
88             	1.1447685e-01	-2.8798449e-05	3.0913956e-04	1.4383736e-02	-6.1715489e-05	7.8056395e-04	7.1622161e-02	4.2854689e-02	7.6616473e-04	-7.9496318e-04	9.2854293e-05	2.1628527e-04
89             	1.1447744e-01	-2.8786557e-05	3.0914666e-04	1.4383739e-02	-6.1767726e-05	7.8073469e-04	7.1622460e-02	4.2854982e-02	7.6634141e-04	-7.9512797e-04	9.2805606e-05	2.1634106e-04
90             	1.1447797e-01	-2.8775846e-05	3.0915168e-04	1.4383742e-02	-6.1794257e-05	7.8088858e-04	7.1622727e-02	4.2855243e-02	7.6650065e-04	-7.9527650e-04	9.2781583e-05	2.1637010e-04
91             	1.1447844e-01	-2.8766323e-05	3.0915590e-04	1.4383744e-02	-6.1814297e-05	7.8102527e-04	7.1622963e-02	4.2855476e-02	7.6664210e-04	-7.9540843e-04	9.2763654e-05	2.1639225e-04
92             	1.1447885e-01	-2.8757987e-05	3.0915971e-04	1.4383746e-02	-6.1832922e-05	7.8114475e-04	7.1623173e-02	4.2855681e-02	7.6676575e-04	-7.9552374e-04	9.2746931e-05	2.1641277e-04
93             	1.1447922e-01	-2.8750803e-05	3.0916401e-04	1.4383748e-02	-6.1863641e-05	7.8124739e-04	7.1623357e-02	4.2855862e-02	7.6687199e-04	-7.9562280e-04	9.2718362e-05	2.1644564e-04
94             	1.1447954e-01	-2.8744699e-05	3.0916923e-04	1.4383749e-02	-6.1912326e-05	7.8133420e-04	7.1623519e-02	4.2856021e-02	7.6696186e-04	-7.9570655e-04	9.2672288e-05	2.1649694e-04
95             	1.1447982e-01	-2.8739538e-05	3.0917532e-04	1.4383750e-02	-6.1977524e-05	7.8140719e-04	7.1623661e-02	4.2856160e-02	7.6703742e-04	-7.9577696e-04	9.2610135e-05	2.1656518e-04
96             	1.1448007e-01	-2.8735149e-05	3.0918162e-04	1.4383752e-02	-6.2048596e-05	7.8146896e-04	7.1623786e-02	4.2856283e-02	7.6710138e-04	-7.9583653e-04	9.2542212e-05	2.1663941e-04
97             	1.1448029e-01	-2.8731335e-05	3.0918710e-04	1.4383753e-02	-6.2109573e-05	7.8152250e-04	7.1623896e-02	4.2856391e-02	7.6715683e-04	-7.9588817e-04	9.2483977e-05	2.1670312e-04
98             	1.1448048e-01	-2.8727874e-05	3.0919037e-04	1.4383753e-02	-6.2138872e-05	7.8157129e-04	7.1623993e-02	4.2856486e-02	7.6720735e-04	-7.9593523e-04	9.2456315e-05	2.1673406e-04
99             	1.1448065e-01	-2.8724441e-05	3.0918933e-04	1.4383754e-02	-6.2104113e-05	7.8162033e-04	7.1624082e-02	4.2856573e-02	7.6725811e-04	-7.9598255e-04	9.2490551e-05	2.1669878e-04
100            	1.1448081e-01	-2.8720886e-05	3.0918346e-04	1.4383755e-02	-6.1997904e-05	7.8167197e-04	7.1624162e-02	4.2856652e-02	7.6731152e-04	-7.9603241e-04	9.2593827e-05	2.1658964e-04
101            	1.1448096e-01	-2.8717155e-05	3.0917340e-04	1.4383756e-02	-6.1829906e-05	7.8172693e-04	7.1624237e-02	4.2856725e-02	7.6736835e-04	-7.9608551e-04	9.2756792e-05	2.1641660e-04
102            	1.1448110e-01	-2.8713315e-05	3.0916054e-04	1.4383756e-02	-6.1621688e-05	7.8178407e-04	7.1624306e-02	4.2856793e-02	7.6742741e-04	-7.9614072e-04	9.2958584e-05	2.1620196e-04
103            	1.1448122e-01	-2.8709576e-05	3.0914740e-04	1.4383757e-02	-6.1411653e-05	7.8183986e-04	7.1624368e-02	4.2856854e-02	7.6748508e-04	-7.9619465e-04	9.3162048e-05	2.1598535e-04
104            	1.1448133e-01	-2.8706239e-05	3.0913643e-04	1.4383758e-02	-6.1237178e-05	7.8188953e-04	7.1624422e-02	4.2856907e-02	7.6753641e-04	-7.9624265e-04	9.3331037e-05	2.1580539e-04
105            	1.1448142e-01	-2.8703714e-05	3.0913063e-04	1.4383758e-02	-6.1143891e-05	7.8192658e-04	7.1624466e-02	4.2856950e-02	7.6757473e-04	-7.9627844e-04	9.3421425e-05	2.1570921e-04
106            	1.1448148e-01	-2.8702311e-05	3.0913292e-04	1.4383758e-02	-6.1175539e-05	7.8194607e-04	7.1624497e-02	4.2856980e-02	7.6759491e-04	-7.9629722e-04	9.3390923e-05	2.1574200e-04
107            	1.1448152e-01	-2.8702091e-05	3.0914234e-04	1.4383758e-02	-6.1316175e-05	7.8194715e-04	7.1624518e-02	4.2857001e-02	7.6759610e-04	-7.9629819e-04	9.3254993e-05	2.1588734e-04
108            	1.1448154e-01	-2.8702882e-05	3.0915725e-04	1.4383759e-02	-6.1540458e-05	7.8193260e-04	7.1624529e-02	4.2857012e-02	7.6758116e-04	-7.9628404e-04	9.3038167e-05	2.1611908e-04
109            	1.1448155e-01	-2.8704457e-05	3.0917613e-04	1.4383759e-02	-6.1824596e-05	7.8190601e-04	7.1624534e-02	4.2857017e-02	7.6755378e-04	-7.9625824e-04	9.2763469e-05	2.1641266e-04
110            	1.1448155e-01	-2.8706574e-05	3.0919733e-04	1.4383759e-02	-6.2143363e-05	7.8187122e-04	7.1624533e-02	4.2857016e-02	7.6751794e-04	-7.9622451e-04	9.2455304e-05	2.1674203e-04
111            	1.1448154e-01	-2.8708979e-05	3.0921923e-04	1.4383759e-02	-6.2471751e-05	7.8183221e-04	7.1624529e-02	4.2857011e-02	7.6747772e-04	-7.9618670e-04	9.2137862e-05	2.1708136e-04
112            	1.1448153e-01	-2.8711424e-05	3.0923986e-04	1.4383759e-02	-6.2780148e-05	7.8179287e-04	7.1624523e-02	4.2857006e-02	7.6743716e-04	-7.9614858e-04	9.1839781e-05	2.1740008e-04
113            	1.1448152e-01	-2.8713720e-05	3.0925860e-04	1.4383759e-02	-6.3059072e-05	7.8175614e-04	7.1624517e-02	4.2856999e-02	7.6739928e-04	-7.9611300e-04	9.1570227e-05	2.1768837e-04
114            	1.1448150e-01	-2.8715729e-05	3.0927459e-04	1.4383759e-02	-6.3295669e-05	7.8172410e-04	7.1624511e-02	4.2856993e-02	7.6736624e-04	-7.9608197e-04	9.1341625e-05	2.1793296e-04
115            	1.1448149e-01	-2.8717328e-05	3.0928704e-04	1.4383759e-02	-6.3478174e-05	7.8169870e-04	7.1624506e-02	4.2856988e-02	7.6734004e-04	-7.9605737e-04	9.1165348e-05	2.1812170e-04
116            	1.1448149e-01	-2.8718399e-05	3.0929565e-04	1.4383759e-02	-6.3601973e-05	7.8168175e-04	7.1624505e-02	4.2856986e-02	7.6732255e-04	-7.9604095e-04	9.1045850e-05	2.1824980e-04
117            	1.1448149e-01	-2.8718933e-05	3.0930093e-04	1.4383759e-02	-6.3675583e-05	7.8167337e-04	7.1624506e-02	4.2856988e-02	7.6731390e-04	-7.9603283e-04	9.0974880e-05	2.1832605e-04
118            	1.1448150e-01	-2.8718958e-05	3.0930335e-04	1.4383759e-02	-6.3706293e-05	7.8167306e-04	7.1624511e-02	4.2856993e-02	7.6731358e-04	-7.9603254e-04	9.0945382e-05	2.1835797e-04
119            	1.1448152e-01	-2.8718483e-05	3.0930285e-04	1.4383759e-02	-6.3693080e-05	7.8168068e-04	7.1624520e-02	4.2857001e-02	7.6732143e-04	-7.9603992e-04	9.0958346e-05	2.1834451e-04
