/*--------------------------------*- C++ -*----------------------------------*\
| =========                 |                                                 |
| \\      /  F ield         | OpenFOAM: The Open Source CFD Toolbox           |
|  \\    /   O peration     | Version:  2106                                  |
|   \\  /    A nd           | Website:  www.openfoam.com                      |
|    \\/     M anipulation  |                                                 |
\*---------------------------------------------------------------------------*/
FoamFile
{
    version     2.0;
    format      ascii;
    arch        "LSB;label=32;scalar=64";
    class       volScalarField;
    location    "100";
    object      p;
}
// * * * * * * * * * * * * * * * * * * * * * * * * * * * * * * * * * * * * * //

dimensions      [ 0 2 -2 0 0 0 0 ];

internalField   nonuniform List<scalar> 
300000
(
0.0001924712
0.0002820909
0.0003888851
0.0004927043
0.0005945467
0.0006958118
0.0007964341
0.0008959503
0.000993875
0.00108971
0.00118293
0.001272995
0.001359376
0.001441585
0.001519185
0.001591814
0.001659184
0.001721084
0.001777383
0.001828015
0.00187298
0.001912331
0.001946167
0.001974621
0.001997861
0.002016073
0.002029465
0.002038256
0.002042675
0.002042957
0.002039341
0.002032065
0.002021368
0.002007484
0.001990644
0.001971074
0.001948993
0.001924611
0.001898135
0.001869761
0.00183968
0.001808073
0.001775115
0.001740976
0.001705817
0.001669793
0.001633053
0.001595738
0.001557985
0.001519922
0.001481673
0.001443351
0.001405068
0.001366925
0.001329017
0.001291433
0.001254255
0.001217559
0.001181414
0.001145883
0.001111025
0.001076889
0.001043524
0.001010969
0.0009792606
0.0009484288
0.0009185014
0.0008894994
0.0008614408
0.0008343376
0.0008082021
0.0007830394
0.0007588504
0.0007356351
0.0007133922
0.0006921149
0.000671789
0.0006524068
0.0006339537
0.0006164152
0.0005997653
0.0005839934
0.0005690825
0.000554996
0.0005417212
0.0005292408
0.0005175309
0.0005065591
0.0004963271
0.0004868122
0.0004779993
0.0004698591
0.0004623942
0.0004555951
0.0004494519
0.0004439513
0.0004391303
0.0004349801
0.0004314592
0.0004286462
0.0004265276
0.0004251232
0.0004244673
0.0004245859
0.0004254633
0.0004272316
0.0004299005
0.0004334862
0.0004381119
0.0004438317
0.0004506388
0.000458576
0.0004678919
0.0004785955
0.0004908045
0.0005046283
0.0005201311
0.0005375366
0.0005569023
0.0005786051
0.0006029018
0.0006295991
0.0006592684
0.000692669
0.0007300487
0.0007710124
0.0008174324
0.0008704053
0.0009304708
0.0009990751
0.001078078
0.001171837
0.001283535
0.001419547
0.00158896
0.001806948
0.00209397
0.002492759
0.003062986
0.003922513
0.005282828
0.007540641
0.01147241
0.01863439
0.03207313
0.05773406
0.1007603
0.1861233
0.1810503
0.07781403
0.0003925846
0.0004804753
0.0005830711
0.0006716604
0.0007492448
0.000820356
0.0008860858
0.00094634
0.001000952
0.001049758
0.001092542
0.001129072
0.001159154
0.001182669
0.001199595
0.001210011
0.00121409
0.001212091
0.00120434
0.001191218
0.001173138
0.001150539
0.001123864
0.001093559
0.00106006
0.00102379
0.0009851579
0.0009445493
0.0009023313
0.0008588482
0.0008144217
0.0007693502
0.0007239091
0.0006783503
0.0006329026
0.0005877727
0.0005431458
0.0004991866
0.0004560407
0.0004138358
0.000372683
0.0003326792
0.0002939073
0.0002564381
0.0002203307
0.0001856344
0.0001523886
0.000120624
9.036243e-05
6.161762e-05
3.439553e-05
8.695449e-06
-1.548945e-05
-3.817416e-05
-5.937747e-05
-7.912286e-05
-9.743964e-05
-0.0001143608
-0.0001299216
-0.0001441599
-0.0001571165
-0.0001688356
-0.0001793604
-0.0001887359
-0.0001970089
-0.0002042273
-0.0002104378
-0.0002156878
-0.0002200256
-0.0002234993
-0.0002261545
-0.0002280405
-0.0002292018
-0.0002296857
-0.0002295387
-0.000228802
-0.0002275198
-0.0002257386
-0.0002235026
-0.0002208503
-0.0002178197
-0.0002144493
-0.0002107824
-0.0002068471
-0.000202666
-0.0001982758
-0.0001937056
-0.0001889767
-0.0001840961
-0.0001790873
-0.0001739672
-0.0001687434
-0.0001634086
-0.0001579741
-0.0001524388
-0.0001467921
-0.0001410219
-0.0001351343
-0.0001291117
-0.0001229123
-0.0001165305
-0.0001099475
-0.0001031282
-9.602066e-05
-8.86095e-05
-8.084833e-05
-7.271263e-05
-6.410717e-05
-5.504686e-05
-4.54661e-05
-3.529033e-05
-2.445233e-05
-1.287038e-05
-5.202632e-07
1.27293e-05
2.693525e-05
4.215781e-05
5.859011e-05
7.639062e-05
9.570444e-05
0.000116694
0.000139425
0.0001644549
0.0001923292
0.0002232336
0.0002573745
0.0002961769
0.0003405538
0.000391623
0.0004514161
0.0005225123
0.0006089192
0.0007158239
0.0008514218
0.001028836
0.00126832
0.001602091
0.002086543
0.002816128
0.00396134
0.005829573
0.008992795
0.01453129
0.02447336
0.04255014
0.07547383
0.1314242
0.2411959
0.2429072
0.07880215
0.0005741022
0.0006819268
0.0008142897
0.0009357271
0.0010486
0.001157925
0.001264465
0.001367446
0.001466087
0.001559701
0.001647597
0.001729104
0.001803633
0.001870724
0.001930062
0.001981478
0.002024937
0.002060523
0.00208842
0.002108889
0.002122251
0.00212887
0.002129136
0.00212346
0.002112259
0.002095954
0.002074966
0.002049708
0.002020586
0.001987996
0.001952321
0.001913928
0.001873169
0.001830376
0.001785864
0.001739928
0.001692844
0.001644866
0.001596234
0.001547165
0.001497864
0.001448516
0.001399294
0.001350356
0.001301847
0.001253901
0.001206639
0.001160171
0.001114594
0.001069996
0.001026454
0.0009840338
0.0009427919
0.0009027766
0.0008640258
0.0008265703
0.0007904338
0.0007556319
0.0007221743
0.0006900669
0.0006593098
0.0006298987
0.0006018225
0.0005750696
0.0005496246
0.0005254677
0.0005025758
0.000480926
0.0004604916
0.0004412434
0.0004231511
0.0004061817
0.0003903062
0.0003754863
0.0003616799
0.0003488554
0.0003369803
0.0003260096
0.0003158997
0.000306612
0.0002981063
0.0002903431
0.0002832873
0.0002769098
0.0002711743
0.0002660422
0.000261486
0.000257489
0.0002540242
0.0002510809
0.000248648
0.0002467237
0.0002452861
0.0002443297
0.0002438694
0.0002439191
0.0002444781
0.0002455699
0.0002472357
0.0002494785
0.0002523199
0.0002558221
0.0002600199
0.0002649749
0.0002707296
0.0002773103
0.0002848205
0.0002933892
0.0003030122
0.0003137727
0.0003257784
0.0003391466
0.0003539678
0.0003704111
0.0003885734
0.0004086477
0.0004307147
0.0004549575
0.0004816584
0.0005111348
0.0005437172
0.0005797329
0.0006195155
0.000663729
0.0007131693
0.0007686652
0.0008311136
0.000902417
0.0009847602
0.001080599
0.001193553
0.001328985
0.001495292
0.001703928
0.001972897
0.002329918
0.002820504
0.003520065
0.004558856
0.006162478
0.008737033
0.01302543
0.02040117
0.0333918
0.05660734
0.09805181
0.1677205
0.2872576
0.2801613
0.1048
0.0007482664
0.0008813862
0.001040896
0.001183355
0.001311683
0.001432013
0.001545442
0.001651219
0.001748585
0.001836902
0.001915544
0.001983922
0.002041569
0.002088199
0.002123718
0.00214822
0.002161972
0.002165382
0.002158973
0.002143354
0.00211919
0.002087181
0.002048039
0.002002476
0.001951193
0.001894872
0.001834171
0.001769721
0.001702125
0.001631952
0.001559737
0.001485983
0.001411156
0.001335688
0.001259972
0.001184368
0.001109201
0.001034765
0.0009613206
0.0008891019
0.0008183154
0.0007491436
0.000681747
0.0006162667
0.0005528245
0.0004915251
0.0004324569
0.0003756927
0.0003212909
0.0002692954
0.0002197365
0.0001726309
0.0001279844
8.57924e-05
4.603822e-05
8.696451e-06
-2.626479e-05
-5.888548e-05
-8.921315e-05
-0.0001172997
-0.0001432006
-0.000166976
-0.0001886916
-0.0002084138
-0.0002262109
-0.0002421547
-0.0002563193
-0.0002687775
-0.0002796035
-0.0002888734
-0.000296663
-0.0003030484
-0.0003081047
-0.0003119065
-0.0003145319
-0.0003160573
-0.0003165562
-0.0003161011
-0.0003147684
-0.0003126344
-0.0003097724
-0.0003062404
-0.0003021
-0.0002974154
-0.0002922369
-0.0002866135
-0.0002805936
-0.0002742135
-0.0002675077
-0.0002604919
-0.0002531889
-0.0002456179
-0.0002377897
-0.0002297073
-0.0002213687
-0.0002127588
-0.0002038632
-0.0001946672
-0.0001851435
-0.0001752772
-0.0001650101
-0.0001543148
-0.0001431365
-0.0001314007
-0.0001190321
-0.0001060089
-9.221639e-05
-7.761831e-05
-6.205403e-05
-4.549816e-05
-2.787245e-05
-9.022732e-06
1.115479e-05
3.28993e-05
5.622895e-05
8.134027e-05
0.000108378
0.0001375721
0.0001691875
0.000203591
0.0002410986
0.0002820671
0.0003270246
0.0003765832
0.0004317618
0.0004935852
0.0005630358
0.0006423263
0.0007340008
0.0008409682
0.0009678102
0.001121066
0.001310257
0.001549479
0.001860268
0.002275609
0.002849696
0.003672028
0.00489444
0.006778752
0.009789326
0.01476103
0.02320667
0.03784055
0.06345894
0.1079584
0.180504
0.2936641
0.2813808
0.1117227
0.0009183474
0.001078396
0.001267271
0.001434232
0.001584351
0.001725691
0.001859925
0.001986371
0.002104213
0.002212699
0.002311037
0.002398466
0.002474361
0.00253831
0.002590135
0.002629879
0.002657784
0.002674255
0.002679826
0.002675127
0.002660848
0.002637715
0.002606463
0.002567829
0.002522535
0.002471286
0.002414765
0.002353628
0.002288504
0.002219994
0.002148666
0.002075057
0.00199967
0.001922974
0.001845402
0.001767351
0.001689187
0.001611239
0.001533808
0.001457164
0.001381551
0.001307188
0.001234271
0.001162975
0.001093458
0.001025857
0.0009602929
0.0008968695
0.0008356739
0.0007767769
0.000720234
0.000666086
0.0006143595
0.000565068
0.0005182137
0.000473787
0.0004317696
0.0003921354
0.0003548494
0.0003198692
0.0002871483
0.0002566361
0.0002282765
0.0002020082
0.0001777679
0.0001554908
0.000135108
0.0001165489
9.974311e-05
8.461836e-05
7.110123e-05
5.911846e-05
4.859285e-05
3.944985e-05
3.161732e-05
2.501571e-05
1.956172e-05
1.518034e-05
1.179693e-05
9.332373e-06
7.708912e-06
6.860443e-06
6.722879e-06
7.237437e-06
8.353039e-06
1.00204e-05
1.219216e-05
1.482623e-05
1.789249e-05
2.138276e-05
2.528038e-05
2.95686e-05
3.425349e-05
3.932972e-05
4.480758e-05
5.068904e-05
5.700316e-05
6.378557e-05
7.107111e-05
7.889038e-05
8.732278e-05
9.641005e-05
0.0001062152
0.000116829
0.0001283433
0.0001408251
0.0001543426
0.0001689914
0.0001849776
0.0002023158
0.0002211858
0.0002416644
0.000263961
0.0002882257
0.0003146018
0.0003433264
0.0003746469
0.0004087647
0.0004459871
0.0004866501
0.0005312997
0.0005804098
0.0006345242
0.0006944824
0.0007613303
0.000836223
0.0009207299
0.001017051
0.001128166
0.001257993
0.001411687
0.001596653
0.001823822
0.002109468
0.002477943
0.002967059
0.00363691
0.004586278
0.005980788
0.008103826
0.01144943
0.01689163
0.02598592
0.04146445
0.06802798
0.1131471
0.1850576
0.2911982
0.2775156
0.1215624
0.001086117
0.00127369
0.001493055
0.001685225
0.001856894
0.002017655
0.00216936
0.002311088
0.002441773
0.002560427
0.00266605
0.002757707
0.002834674
0.002896513
0.002943094
0.002974568
0.00299133
0.002993976
0.002983258
0.002960041
0.002925257
0.002879876
0.002824874
0.002761216
0.00268985
0.002611692
0.002527629
0.002438508
0.002345139
0.002248289
0.002148683
0.002047002
0.001943878
0.001839897
0.001735596
0.001631465
0.001527946
0.00142544
0.001324302
0.00122485
0.001127368
0.001032105
0.000939283
0.0008490949
0.0007617106
0.0006772764
0.0005959161
0.0005177324
0.0004428075
0.0003712034
0.0003029631
0.0002381118
0.0001766572
0.0001185914
6.389325e-05
1.252874e-05
-3.554822e-05
-8.039251e-05
-0.0001220671
-0.0001606439
-0.0001962013
-0.0002288213
-0.0002585907
-0.0002856032
-0.0003099558
-0.0003317444
-0.0003510694
-0.0003680344
-0.0003827418
-0.0003952946
-0.0004057968
-0.0004143536
-0.0004210718
-0.0004260608
-0.000429424
-0.0004312678
-0.000431703
-0.0004308458
-0.0004288036
-0.0004256814
-0.0004215812
-0.0004165982
-0.0004108158
-0.0004043117
-0.0003971605
-0.0003894395
-0.0003811991
-0.0003724846
-0.0003633379
-0.0003537816
-0.0003438295
-0.0003335044
-0.0003228216
-0.0003118023
-0.0003004213
-0.0002886881
-0.0002765819
-0.00026406
-0.0002510923
-0.000237643
-0.0002236651
-0.0002091047
-0.0001938753
-0.0001778776
-0.0001610536
-0.0001432821
-0.0001244859
-0.0001045421
-8.329637e-05
-6.06551e-05
-3.642022e-05
-1.059273e-05
1.71843e-05
4.698954e-05
7.907433e-05
0.0001136375
0.000150948
0.0001912442
0.0002348907
0.0002822112
0.0003337981
0.0003903039
0.0004522699
0.0005205897
0.0005963957
0.0006811027
0.0007765897
0.0008850905
0.001009905
0.001155647
0.001327879
0.001534808
0.001788493
0.002106542
0.002515417
0.003055767
0.003791391
0.004826095
0.006331813
0.008599928
0.0121316
0.01780068
0.02713921
0.04279715
0.06924589
0.1134702
0.1830224
0.2837665
0.271036
0.1344147
0.001252508
0.001467861
0.001718466
0.001936785
0.002131094
0.002312742
0.002484004
0.002643934
0.002791391
0.002925297
0.003044535
0.003148069
0.00323511
0.003305211
0.00335828
0.003394544
0.0034145
0.003418863
0.003408515
0.003384456
0.003347752
0.003299497
0.003240778
0.003172665
0.003096195
0.003012372
0.002922157
0.00282647
0.002726186
0.002622134
0.002515096
0.002405805
0.002294944
0.00218314
0.002070973
0.001958968
0.001847599
0.001737293
0.001628433
0.001521358
0.001416371
0.001313741
0.001213705
0.001116474
0.001022231
0.0009311365
0.0008433278
0.0007589184
0.0006780003
0.0006006438
0.0005268979
0.0004567918
0.0003903362
0.0003275245
0.0002683345
0.0002127309
0.0001606654
0.0001120791
6.690471e-05
2.506667e-05
-1.351967e-05
-4.894402e-05
-8.129951e-05
-0.0001106867
-0.0001372104
-0.0001609759
-0.0001820913
-0.0002006675
-0.000216817
-0.0002306513
-0.0002422818
-0.0002518245
-0.0002593948
-0.0002651114
-0.0002690959
-0.0002714667
-0.0002723458
-0.0002718699
-0.0002701705
-0.0002673618
-0.0002635532
-0.0002588436
-0.0002533238
-0.0002470883
-0.0002402296
-0.0002328376
-0.0002249784
-0.0002166851
-0.0002079845
-0.0001989022
-0.0001894451
-0.0001796088
-0.0001693963
-0.0001588176
-0.0001478456
-0.0001364548
-0.0001246267
-0.0001123257
-9.950426e-05
-8.610749e-05
-7.209408e-05
-5.73739e-05
-4.188244e-05
-2.549391e-05
-8.107005e-06
1.039121e-05
3.012645e-05
5.120359e-05
7.377773e-05
9.801283e-05
0.0001240913
0.0001521295
0.0001823764
0.0002150723
0.0002504326
0.0002886423
0.000330027
0.0003749436
0.0004237226
0.000476808
0.0005346937
0.0005981269
0.0006678057
0.0007447031
0.0008300888
0.0009256076
0.001033224
0.001155256
0.001295491
0.001458841
0.001651532
0.001882326
0.002163966
0.002514956
0.002963081
0.003550485
0.004342475
0.00544412
0.007027426
0.009380063
0.01299191
0.01870734
0.02798959
0.04334727
0.0689615
0.1113699
0.1776969
0.2748688
0.2639825
0.1494624
0.001417982
0.001661241
0.001943576
0.00218877
0.002406526
0.002609869
0.002801416
0.002980062
0.003144442
0.003293231
0.003425059
0.003538661
0.003633092
0.00370783
0.003762784
0.003798234
0.003814777
0.003813257
0.00379472
0.003760344
0.003711384
0.00364912
0.003574821
0.003489736
0.003395073
0.003292004
0.003181653
0.003065095
0.002943356
0.002817409
0.002688173
0.002556508
0.002423216
0.002289036
0.002154645
0.002020658
0.001887631
0.00175606
0.00162639
0.001499013
0.00137428
0.001252499
0.001133944
0.001018855
0.0009074419
0.0007998871
0.0006963452
0.0005969443
0.000501786
0.0004109469
0.0003244786
0.0002424094
0.0001647458
9.147464e-05
2.256466e-05
-4.203094e-05
-0.0001023723
-0.0001585327
-0.0002105955
-0.0002586523
-0.0003028048
-0.0003431623
-0.0003798384
-0.0004129532
-0.0004426315
-0.0004690024
-0.0004921954
-0.0005123415
-0.000529575
-0.0005440298
-0.0005558378
-0.000565136
-0.0005720678
-0.0005767739
-0.0005793996
-0.0005800949
-0.0005790206
-0.0005763453
-0.0005722375
-0.0005668446
-0.0005602805
-0.0005526494
-0.0005440457
-0.0005345699
-0.000524305
-0.0005133093
-0.0005017112
-0.0004895986
-0.0004770291
-0.0004640547
-0.0004507093
-0.0004369974
-0.000422927
-0.000408503
-0.000393722
-0.0003785411
-0.0003629454
-0.0003468986
-0.0003303304
-0.0003131937
-0.0002954225
-0.00027691
-0.0002576015
-0.0002373805
-0.000216091
-0.0001936257
-0.0001698724
-0.0001446645
-0.0001178262
-8.92224e-05
-5.867228e-05
-2.594065e-05
9.097267e-06
4.675269e-05
8.732354e-05
0.0001309766
0.0001779807
0.0002287723
0.0002837817
0.0003434481
0.0004082637
0.0004790867
0.0005566901
0.0006421935
0.000736933
0.0008426191
0.0009612981
0.001095842
0.001249975
0.001428675
0.001638905
0.001890101
0.002195149
0.002573102
0.003052252
0.003674991
0.004506769
0.005650933
0.007274446
0.009653507
0.01325352
0.01886901
0.02786543
0.04257251
0.06685329
0.1068308
0.1694187
0.2636395
0.2560609
0.1638361
0.001582678
0.001853902
0.002168308
0.002440982
0.002682971
0.002908949
0.003121878
0.003320506
0.003503253
0.003668567
0.003814839
0.003940612
0.004044827
0.004126934
0.004186889
0.004225066
0.004242186
0.004239246
0.004217464
0.004178207
0.004122912
0.004053034
0.003970005
0.00387522
0.003770031
0.003655737
0.003533586
0.003404769
0.003270419
0.003131608
0.002989346
0.00284458
0.002698188
0.002550978
0.002403689
0.002256988
0.002111474
0.001967684
0.001826094
0.001687123
0.001551143
0.001418484
0.001289436
0.001164253
0.001043161
0.0009263522
0.0008139917
0.0007062158
0.0006031323
0.0005048212
0.0004113357
0.0003227033
0.0002389277
0.0001599913
8.585733e-05
1.647191e-05
-4.823291e-05
-0.0001083384
-0.000163938
-0.0002151338
-0.0002620374
-0.0003047702
-0.0003434603
-0.0003782414
-0.0004092504
-0.0004366316
-0.0004605287
-0.0004810859
-0.0004984506
-0.0005127699
-0.0005241881
-0.0005328577
-0.0005389421
-0.0005426012
-0.0005439981
-0.0005433077
-0.0005407352
-0.0005364949
-0.0005307857
-0.0005237966
-0.000515703
-0.0005066076
-0.0004965769
-0.0004856864
-0.0004739908
-0.0004615215
-0.0004483676
-0.0004346239
-0.0004203686
-0.0004056806
-0.0003906273
-0.0003752399
-0.000359533
-0.0003435151
-0.0003271856
-0.0003105067
-0.0002934453
-0.000275949
-0.0002579523
-0.0002393853
-0.0002201663
-0.0002001818
-0.0001793589
-0.0001575513
-0.0001346106
-0.0001104033
-8.477011e-05
-5.754827e-05
-2.857138e-05
2.36733e-06
3.545762e-05
7.094627e-05
0.0001089633
0.0001497888
0.00019387
0.0002414165
0.0002926235
0.0003479394
0.0004079351
0.0004731505
0.0005441545
0.0006217286
0.0007068238
0.0008004902
0.0009042584
0.001019755
0.001149248
0.001296016
0.001463704
0.001657429
0.001884588
0.002154949
0.002481657
0.002883937
0.003389912
0.004041408
0.004902214
0.006071563
0.00770785
0.01006973
0.01358783
0.01899022
0.02751974
0.04129276
0.06380903
0.1007472
0.158862
0.2487987
0.2480037
0.1716379
0.001746486
0.002045671
0.002392369
0.002693013
0.002959947
0.003209452
0.00344481
0.003664586
0.003866927
0.004049975
0.004211809
0.0043507
0.004465411
0.00455532
0.004620385
0.004661034
0.00467807
0.004672612
0.004646031
0.004599872
0.004535754
0.004455306
0.004360128
0.004251778
0.004131766
0.004001545
0.003862515
0.00371601
0.003563303
0.003405601
0.003244042
0.003079691
0.002913539
0.002746498
0.0025794
0.002412997
0.002247965
0.002084904
0.001924348
0.001766769
0.001612583
0.001462158
0.001315821
0.001173859
0.001036524
0.0009040363
0.0007765826
0.0006543182
0.0005373667
0.0004258194
0.0003197375
0.0002191533
0.0001240721
3.447542e-05
-4.967632e-05
-0.0001284415
-0.0002018945
-0.0002701235
-0.0003332302
-0.000391328
-0.0004445394
-0.0004929983
-0.0005368488
-0.0005762411
-0.000611328
-0.000642268
-0.0006692193
-0.0006923429
-0.000711802
-0.0007277576
-0.0007403665
-0.000749799
-0.0007562403
-0.0007598849
-0.0007609286
-0.0007595664
-0.000756058
-0.0007506756
-0.0007436223
-0.0007350823
-0.0007252105
-0.0007141298
-0.0007019515
-0.0006888026
-0.0006747802
-0.0006599701
-0.0006444258
-0.0006282393
-0.0006114997
-0.0005942811
-0.000576656
-0.0005586803
-0.0005403815
-0.0005217605
-0.0005028155
-0.0004835331
-0.0004638732
-0.0004437557
-0.0004231302
-0.0004019263
-0.0003800315
-0.000357341
-0.0003337568
-0.0003091225
-0.000283264
-0.0002560565
-0.000227308
-0.0001968333
-0.0001644853
-0.0001299932
-9.318156e-05
-5.378316e-05
-1.157663e-05
3.362421e-05
8.22818e-05
0.0001347034
0.0001911463
0.0002520233
0.0003178518
0.0003892539
0.000466897
0.0005516056
0.0006443096
0.0007460555
0.0008586301
0.0009837032
0.001123609
0.001281846
0.001462123
0.001669805
0.001912549
0.002200032
0.002545661
0.002968726
0.003496856
0.004170562
0.005050807
0.006231393
0.007859754
0.01017276
0.01355967
0.01867058
0.02660404
0.03922165
0.05958905
0.0927866
0.1451704
0.22844
0.2429036
0.1632829
0.001909088
0.00223615
0.002615247
0.002944241
0.003236749
0.003510637
0.00376949
0.004011666
0.004235005
0.0044373
0.004616266
0.004769871
0.004896684
0.00499601
0.005067819
0.005112593
0.005131221
0.005124945
0.00509531
0.005044055
0.004972999
0.004883959
0.004778714
0.004658994
0.004526477
0.00438278
0.004229455
0.004067985
0.003899781
0.00372618
0.003548442
0.003367746
0.003185184
0.003001763
0.002818397
0.002635911
0.00245504
0.002276439
0.002100686
0.001928288
0.001759693
0.001595298
0.00143545
0.00128046
0.001130599
0.0009861036
0.0008471752
0.0007139815
0.0005866555
0.000465295
0.0003499641
0.0002406955
0.0001374929
4.033391e-05
-5.082582e-05
-0.0001360505
-0.0002154214
-0.0002890342
-0.0003569987
-0.0004194385
-0.0004764881
-0.0005282942
-0.0005750156
-0.0006168193
-0.0006538753
-0.0006863526
-0.0007144215
-0.000738257
-0.0007580325
-0.0007739164
-0.0007860786
-0.0007947041
-0.0008000132
-0.0008022486
-0.0008016351
-0.0007984641
-0.0007930787
-0.0007858306
-0.0007768837
-0.0007662856
-0.0007540681
-0.0007404074
-0.0007255132
-0.0007095777
-0.0006927569
-0.0006751961
-0.0006569585
-0.000638148
-0.0006188688
-0.0005991781
-0.0005791268
-0.0005587695
-0.0005381374
-0.0005172255
-0.0004960279
-0.0004745337
-0.0004527073
-0.0004304554
-0.0004077154
-0.0003844162
-0.0003604347
-0.0003356384
-0.0003099031
-0.0002831089
-0.0002550367
-0.0002254935
-0.0001943316
-0.0001613433
-0.0001262852
-8.894314e-05
-4.911668e-05
-6.497866e-06
3.918029e-05
8.811457e-05
0.0001407438
0.000197372
0.0002583272
0.0003241486
0.0003952624
0.0004722133
0.000555787
0.0006469454
0.0007466681
0.0008560983
0.0009771383
0.001111543
0.001261666
0.00143092
0.00162335
0.001844435
0.002101695
0.002405079
0.002768121
0.003209688
0.003756668
0.004448013
0.005341466
0.006524352
0.008131488
0.01037612
0.01360211
0.01837322
0.02562682
0.03692438
0.0548028
0.08335044
0.1274933
0.1932618
0.2330514
0.1413528
0.002069983
0.002424741
0.002836213
0.003193813
0.003512424
0.003811481
0.004094864
0.00436071
0.004606517
0.004829673
0.005027466
0.005197492
0.005338075
0.00544841
0.005528443
0.005578662
0.005599991
0.005593763
0.005561671
0.005505643
0.00542769
0.005329814
0.005213973
0.005082078
0.004935982
0.004777475
0.004608274
0.004430022
0.004244282
0.004052533
0.003856172
0.003656505
0.003454745
0.003252007
0.003049303
0.002847546
0.002647549
0.002450032
0.002255631
0.002064903
0.001878339
0.001696374
0.001519391
0.001347732
0.001181697
0.00102155
0.000867517
0.0007197868
0.0005785093
0.0004437962
0.0003157209
0.000194322
7.960705e-05
-2.844476e-05
-0.0001298783
-0.0002247591
-0.0003131707
-0.0003952123
-0.0004709982
-0.0005406581
-0.0006043368
-0.0006621929
-0.0007143986
-0.0007611381
-0.0008025967
-0.0008389495
-0.0008703733
-0.0008970472
-0.0009191547
-0.0009368777
-0.0009503982
-0.0009599037
-0.0009656347
-0.0009679173
-0.0009670803
-0.0009634875
-0.0009574966
-0.0009493058
-0.0009390858
-0.0009269564
-0.0009130403
-0.0008975706
-0.0008807981
-0.000862932
-0.0008441434
-0.000824587
-0.0008043542
-0.0007835393
-0.0007622488
-0.0007405496
-0.0007184838
-0.0006961007
-0.0006734322
-0.0006504862
-0.0006272551
-0.0006037209
-0.0005798556
-0.0005555793
-0.0005307951
-0.0005054258
-0.0004793552
-0.0004524387
-0.000424525
-0.0003954829
-0.0003650921
-0.0003331269
-0.000299408
-0.000263721
-0.0002257994
-0.0001854362
-0.0001423555
-9.625906e-05
-4.688921e-05
6.014647e-06
6.288697e-05
0.0001240539
0.0001898186
0.0002607849
0.0003374681
0.0004203451
0.0005101691
0.0006079545
0.0007148267
0.0008320199
0.0009612603
0.001104476
0.001264375
0.001444065
0.001647814
0.001881317
0.002151951
0.00246986
0.002848607
0.003306602
0.003869864
0.004575765
0.005478649
0.00665928
0.008240052
0.01041049
0.0134689
0.01789238
0.02445187
0.03438831
0.04964024
0.07308521
0.1077471
0.153144
0.1854367
0.1037309
0.002228518
0.00261067
0.003054338
0.003440652
0.003785766
0.004110675
0.004419563
0.004710344
0.004980155
0.005225936
0.005444484
0.005632957
0.005789376
0.005912787
0.00600307
0.006060673
0.006086503
0.006081954
0.006048857
0.005989331
0.005905589
0.005799832
0.00567422
0.005530868
0.005371833
0.005199103
0.005014583
0.004820092
0.004617359
0.00440802
0.004193618
0.003975596
0.003755294
0.003533941
0.003312655
0.003092438
0.002874182
0.002658673
0.002446602
0.002238573
0.002035118
0.001836703
0.001643743
0.001456608
0.001275624
0.001101077
0.0009332144
0.0007722423
0.0006183245
0.0004715827
0.000332097
0.0001999085
7.502533e-05
-4.25739e-05
-0.0001529364
-0.0002561307
-0.0003522436
-0.0004413784
-0.0005236541
-0.0005992075
-0.0006681948
-0.0007307901
-0.0007871831
-0.0008375757
-0.0008821606
-0.0009211101
-0.0009546017
-0.0009828331
-0.00100601
-0.001024315
-0.001037916
-0.001047043
-0.001052048
-0.001053305
-0.001051185
-0.00104619
-0.001038496
-0.001028137
-0.001015385
-0.001000561
-0.0009839376
-0.0009657754
-0.0009462999
-0.0009257121
-0.0009041971
-0.0008818816
-0.0008589047
-0.0008353643
-0.0008113622
-0.0007869855
-0.0007622871
-0.0007373112
-0.0007120919
-0.0006866463
-0.0006609645
-0.0006350284
-0.0006087901
-0.0005821858
-0.000555117
-0.0005274767
-0.0004991326
-0.0004699423
-0.0004397461
-0.0004083566
-0.0003755571
-0.000341129
-0.0003048394
-0.000266434
-0.0002256499
-0.0001822812
-0.0001359737
-8.643399e-05
-3.341043e-05
2.345618e-05
8.450982e-05
0.0001501113
0.000220693
0.0002967408
0.0003788242
0.0004675132
0.0005635301
0.0006678057
0.0007815689
0.0009061791
0.001043228
0.001195062
0.001364381
0.00155425
0.00176904
0.002014419
0.002297975
0.002629673
0.003023076
0.003496382
0.004074732
0.004794009
0.005705374
0.006883692
0.00844032
0.01054329
0.01344992
0.01755872
0.02348836
0.03218576
0.04503746
0.0638601
0.09017195
0.1209509
0.1426241
0.09442213
0.002383916
0.002793018
0.003268521
0.003683484
0.004055336
0.004406634
0.004741889
0.005058815
0.00535419
0.005624478
0.005865927
0.006075174
0.006249858
0.0063888
0.006491742
0.006559008
0.006591414
0.006590358
0.006557792
0.006496015
0.006407444
0.006294485
0.006159515
0.006004873
0.00583284
0.005645621
0.005445321
0.005233952
0.00501342
0.004785531
0.004551984
0.004314372
0.004074174
0.003832749
0.003591329
0.00335102
0.0031128
0.002877533
0.002645972
0.002418774
0.002196516
0.001979706
0.001768793
0.00156418
0.001366222
0.001175234
0.0009914889
0.0008152145
0.0006465925
0.0004857576
0.0003327992
0.0001877645
5.066476e-05
-7.851923e-05
-0.0001998339
-0.000313348
-0.0004191482
-0.0005173381
-0.0006080389
-0.0006913933
-0.0007675682
-0.0008367518
-0.0008991483
-0.0009549723
-0.001004408
-0.001047618
-0.001084802
-0.001116185
-0.001141987
-0.001162342
-0.001177412
-0.001187567
-0.001193219
-0.00119475
-0.001192538
-0.001187039
-0.001178381
-0.001166765
-0.001152573
-0.001136201
-0.001117965
-0.001098121
-0.001076892
-0.001054475
-0.001031069
-0.001006822
-0.0009818829
-0.0009563672
-0.0009303917
-0.0009040525
-0.0008774063
-0.0008505035
-0.0008233829
-0.0007960617
-0.0007685301
-0.0007407669
-0.000712719
-0.0006843215
-0.0006554765
-0.0006260555
-0.0005959217
-0.000564915
-0.0005328503
-0.0004995188
-0.0004647215
-0.0004281955
-0.000389672
-0.0003488793
-0.0003055513
-0.0002594308
-0.0002101554
-0.0001574086
-0.000100912
-4.030286e-05
2.477001e-05
9.471148e-05
0.0001699676
0.0002509995
0.0003383825
0.0004327604
0.0005348802
0.000645624
0.0007662652
0.0008981255
0.001042864
0.001203028
0.001381211
0.001580694
0.001805886
0.002062421
0.002357945
0.002702462
0.003109486
0.003597102
0.004189985
0.004922508
0.005843616
0.007023588
0.008564915
0.01061896
0.01341108
0.0172782
0.02272034
0.03045963
0.04147218
0.05686918
0.07734657
0.1004445
0.1178371
0.09932902
0.002535311
0.002970758
0.003477535
0.003920877
0.004319502
0.004697532
0.005059847
0.005404009
0.005726473
0.00602323
0.006289938
0.006522629
0.006718453
0.006875903
0.006994471
0.007074237
0.007115818
0.007120538
0.00709043
0.007027974
0.006935805
0.006816571
0.006672906
0.00650742
0.006322658
0.006121068
0.005904984
0.005676626
0.005438096
0.005191384
0.004938363
0.004680792
0.004420306
0.004158407
0.003896458
0.003635678
0.003377145
0.003121803
0.002870474
0.00262387
0.002382615
0.002147253
0.001918271
0.0016961
0.001481127
0.001273692
0.001074093
0.0008825772
0.0006993428
0.0005245354
0.0003582508
0.0002005398
5.141485e-05
-8.914333e-05
-0.0002211821
-0.0003447717
-0.0004600004
-0.0005669722
-0.0006658111
-0.0007566665
-0.0008397132
-0.00091515
-0.000983193
-0.001044065
-0.001097934
-0.001144973
-0.00118541
-0.0012195
-0.00124747
-0.001269387
-0.001285484
-0.001296197
-0.001301974
-0.00130321
-0.001300262
-0.001293424
-0.001283019
-0.001269472
-0.001253225
-0.001234674
-0.001214144
-0.001191903
-0.001168198
-0.001143241
-0.001117236
-0.001090386
-0.001062825
-0.001034689
-0.001006112
-0.0009771919
-0.0009479984
-0.0009185904
-0.0008890061
-0.0008592634
-0.0008293597
-0.0007992731
-0.0007689522
-0.0007383185
-0.0007072692
-0.00067567
-0.0006433671
-0.0006101958
-0.0005759477
-0.0005403851
-0.0005033013
-0.0004644136
-0.0004233957
-0.0003799746
-0.000333867
-0.0002847578
-0.0002323095
-0.0001761841
-0.0001160179
-5.14415e-05
1.786787e-05
9.230686e-05
0.0001724365
0.0002586615
0.0003514467
0.0004516747
0.0005600104
0.0006772963
0.000804799
0.0009439103
0.001096392
0.001264642
0.001451366
0.001660265
0.001895577
0.002162961
0.002470122
0.002827194
0.003247624
0.003749458
0.004357182
0.005104415
0.006038695
0.00722769
0.008768274
0.01080143
0.01353275
0.01726091
0.02241257
0.02957318
0.03947609
0.05284964
0.06998644
0.08946297
0.1062504
0.1048377
0.00268179
0.003142807
0.003680073
0.004151301
0.004576495
0.004981357
0.005371189
0.005743483
0.006094439
0.006419626
0.006714101
0.006973213
0.007193483
0.007372912
0.0075106
0.007606259
0.007660183
0.007673518
0.007648299
0.007587158
0.007492955
0.007368609
0.007217063
0.007041248
0.006844018
0.006628094
0.006396061
0.006150366
0.005893326
0.005627131
0.005353845
0.005075409
0.004793633
0.004510185
0.004226574
0.003944149
0.003664099
0.003387463
0.003115137
0.002847894
0.002586406
0.002331259
0.002082972
0.00184201
0.001608786
0.001383667
0.001166975
0.0009589768
0.0007598874
0.0005698627
0.0003890035
0.0002173633
5.495521e-05
-9.824145e-05
-0.0002422759