/*--------------------------------*- C++ -*----------------------------------*\
| =========                 |                                                 |
| \\      /  F ield         | OpenFOAM: The Open Source CFD Toolbox           |
|  \\    /   O peration     | Version:  2106                                  |
|   \\  /    A nd           | Website:  www.openfoam.com                      |
|    \\/     M anipulation  |                                                 |
\*---------------------------------------------------------------------------*/
FoamFile
{
    version     2.0;
    format      ascii;
    arch        "LSB;label=32;scalar=64";
    class       volScalarField;
    location    "60";
    object      p;
}
// * * * * * * * * * * * * * * * * * * * * * * * * * * * * * * * * * * * * * //

dimensions      [ 0 2 -2 0 0 0 0 ];

internalField   nonuniform List<scalar> 
300000
(
0.0001933171
0.000283773
0.0003914313
0.0004955728
0.0005979697
0.0007000625
0.0008014997
0.0009017705
0.001000484
0.001097216
0.001191439
0.001282602
0.001370173
0.001453676
0.001532691
0.001606873
0.001675935
0.001739689
0.001798021
0.001850896
0.001898329
0.001940387
0.00197715
0.00200877
0.002035464
0.002057526
0.002075142
0.002088436
0.002097733
0.002103307
0.002105325
0.002104328
0.002100506
0.002093789
0.002084694
0.002073331
0.002060288
0.002045874
0.002029305
0.002011966
0.001993808
0.001975292
0.001955805
0.001936219
0.00191583
0.00189683
0.001877763
0.001859145
0.001840273
0.00182268
0.001808366
0.001792313
0.001779681
0.001768537
0.001758873
0.001751201
0.001746345
0.001743644
0.001744311
0.00174425
0.001751338
0.001759983
0.001772446
0.001786767
0.001807917
0.001831408
0.001860115
0.001892795
0.001933622
0.001975497
0.002025835
0.002081733
0.002146953
0.002220014
0.002298963
0.002389132
0.002483673
0.002592011
0.002709788
0.002852883
0.002995226
0.00314854
0.003341234
0.003546611
0.003772349
0.004018832
0.004312024
0.004605377
0.004926661
0.005270629
0.005683232
0.006125987
0.006615044
0.0071416
0.0077219
0.008270179
0.008836977
0.009490825
0.01008514
0.01071289
0.0113137
0.01190749
0.01244836
0.0130046
0.01337239
0.0137102
0.01394196
0.01399948
0.013947
0.01392162
0.0139561
0.01371852
0.01345617
0.01299363
0.01248529
0.01216464
0.01182959
0.01169527
0.01118835
0.01039576
0.01045583
0.01066872
0.01019868
0.009395251
0.01025074
0.01003089
0.009566802
0.009319655
0.009091075
0.009785412
0.008580008
0.008391382
0.008099983
0.008118416
0.006849432
0.009618317
0.005997367
0.0101354
0.00964271
0.007684078
0.006661499
0.009576102
0.008853763
0.005920825
0.006327576
0.008634249
0.006037138
0.005672706
0.004323854
0.006513591
0.000394102
0.0004824939
0.000585502
0.0006743621
0.000752543
0.0008239726
0.0008898251
0.0009505054
0.001005692
0.001054915
0.001098058
0.001135084
0.001165787
0.001189939
0.001207504
0.001218619
0.001223482
0.001222329
0.001215487
0.001203357
0.001186379
0.001164975
0.001139565
0.001110596
0.001078539
0.001043833
0.001006855
0.000967992
0.0009276641
0.0008862307
0.0008440069
0.0008013086
0.0007582673
0.0007151184
0.0006723403
0.0006301698
0.0005887419
0.0005480099
0.0005080778
0.0004695607
0.00043233
0.0003962509
0.000361365
0.0003280783
0.0002964054
0.0002666433
0.000238289
0.0002115656
0.0001865818
0.000163513
0.0001421828
0.0001216928
0.0001040911
8.851257e-05
7.436995e-05
6.139938e-05
4.973424e-05
3.974628e-05
3.182591e-05
2.525953e-05
2.138568e-05
1.869705e-05
1.748876e-05
1.713288e-05
1.851631e-05
2.069693e-05
2.418171e-05
2.925367e-05
3.699056e-05
4.501293e-05
5.724865e-05
6.676901e-05
7.602371e-05
8.898692e-05
0.000104469
0.0001206371
0.0001369589
0.0001560945
0.0001765801
0.0001971482
0.0002158906
0.0002462076
0.0002806906
0.0003082737
0.000337371
0.0003673838
0.0004065673
0.0004401897
0.0004796998
0.0005281689
0.000590111
0.000642912
0.0007045407
0.0007665512
0.0008271804
0.0008773732
0.0009445329
0.001034161
0.001118533
0.001202448
0.001304644
0.001430811
0.001533045
0.001635038
0.001748231
0.00193898
0.002102681
0.002292366
0.002478042
0.002685749
0.002961033
0.003257486
0.00357524
0.003804659
0.003983569
0.004192807
0.004419961
0.004763395
0.005168835
0.005422744
0.005817727
0.006235526
0.00643757
0.006275937
0.006401538
0.006532738
0.007050459
0.007449675
0.007210551
0.006751299
0.006141192
0.006011428
0.006736202
0.007269067
0.00697157
0.006644034
0.005984767
0.006739323
0.006819277
0.00664763
0.00652068
0.006605396
0.006028845
0.005325919
0.005160627
0.005290743
0.004916276
0.004814155
0.004644563
0.005717546
0.0005762855
0.0006849348
0.0008181229
0.0009401049
0.001053734
0.00116356
0.001270634
0.001374667
0.001474484
0.001569004
0.001657772
0.001740424
0.001816322
0.001884851
0.001945699
0.001998769
0.002044057
0.00208161
0.002111609
0.00213438
0.002150313
0.002159773
0.002163112
0.002160695
0.002152942
0.002140347
0.002123452
0.002102709
0.002078457
0.002051079
0.002020972
0.001988504
0.001954126
0.00191823
0.001881092
0.001843045
0.001804322
0.001765308
0.001726345
0.001687418
0.001648933
0.001611102
0.001574277
0.001538476
0.001503896
0.001470496
0.001438928
0.001409155
0.001381215
0.001354845
0.001330492
0.001308809
0.001289278
0.001272957
0.001259458
0.001248033
0.001238717
0.001232579
0.001230109
0.001231012
0.001234293
0.001241555
0.001252385
0.001266243
0.00128318
0.00130441
0.00132948
0.001359164
0.001394131
0.001433284
0.001480463
0.001527574
0.001577697
0.001638166
0.001707901
0.001782869
0.00186289
0.001948251
0.002039708
0.002144029
0.002257788
0.002383362
0.002517496
0.002655779
0.002807645
0.002977237
0.003159976
0.00335808
0.003562471
0.003779277
0.003999068
0.004236255
0.00449449
0.004758432
0.005023635
0.005289849
0.005568763
0.005842632
0.006110803
0.006377013
0.006610541
0.006866386
0.007105545
0.007324005
0.007537965
0.007771283
0.00792167
0.008052887
0.008162032
0.008290607
0.008474948
0.008676549
0.008855493
0.008955738
0.008862335
0.008785867
0.0088142
0.009036957
0.009310465
0.009486765
0.009601683
0.009697611
0.009688371
0.009642584
0.009584528
0.009678987
0.009968009
0.01022369
0.01017608
0.009706026
0.008955519
0.008416856
0.008831589
0.009225224
0.00917783
0.00861472
0.00805009
0.008266919
0.008505213
0.008624326
0.008584459
0.008388908
0.007945895
0.007435604
0.007016738
0.006640709
0.00626394
0.00599998
0.005894341
0.007070666
0.0007510112
0.0008849923
0.001045192
0.001188086
0.001317263
0.001438197
0.001552056
0.001658634
0.001756965
0.001846058
0.001925424
0.001994721
0.002053468
0.002101266
0.002138035
0.002163906
0.002179126
0.002184091
0.002179353
0.002165589
0.002143532
0.002113859
0.002077196
0.002034211
0.001985625
0.001932198
0.001874678
0.001813723
0.001749886
0.0016837
0.001615714
0.001546467
0.001476472
0.001406086
0.001335653
0.001265666
0.001196543
0.001128617
0.001062045
0.0009969359
0.0009336988
0.0008725283
0.0008134881
0.0007566362
0.0007022195
0.0006503637
0.000601343
0.000555074
0.0005116262
0.0004709797
0.0004334262
0.0003990777
0.0003671342
0.0003383423
0.0003132484
0.0002912876
0.0002715917
0.0002543774
0.0002403311
0.0002295804
0.0002213924
0.0002165069
0.0002150308
0.0002162883
0.0002198207
0.0002262016
0.0002350882
0.0002465894
0.0002613262
0.000278901
0.0003017398
0.0003271777
0.0003525674
0.0003810795
0.0004140891
0.0004518421
0.0004917338
0.0005339228
0.0005794498
0.0006364982
0.0006953484
0.0007591076
0.0008314989
0.0009036924
0.0009849386
0.001079718
0.001183798
0.001299452
0.001417825
0.001546414
0.001689966
0.001848148
0.002030955
0.002231131
0.002438565
0.002651951
0.002895072
0.003159022
0.003451422
0.003741421
0.00406082
0.004405118
0.004775087
0.005138231
0.005511172
0.005853426
0.006263044
0.006563469
0.006862771
0.007170631
0.007539531
0.007974507
0.008287788
0.008559621
0.008683502
0.008767707
0.008840612
0.00907841
0.009420069
0.009796222
0.01007133
0.01011519
0.0102041
0.01016587
0.01000734
0.01012415
0.01039242
0.01066275
0.01077344
0.01034936
0.009571882
0.009226256
0.009427204
0.009513681
0.009692554
0.009400985
0.008823343
0.008580379
0.008732728
0.009091899
0.009279807
0.009217756
0.009029541
0.008720392
0.008188721
0.007549671
0.007036879
0.006612679
0.00636528
0.007210239
0.000921653
0.001082773
0.001272588
0.00144023
0.001591424
0.001733468
0.001868176
0.001995588
0.002114754
0.00222446
0.002323914
0.002412596
0.002489975
0.002555585
0.002609229
0.002650957
0.002680957
0.002699638
0.002707622
0.002705613
0.002694339
0.002674509
0.002646781
0.002611841
0.002570465
0.002523426
0.002471459
0.002415304
0.00235563
0.002292991
0.002227893
0.002160867
0.002092475
0.002023223
0.001953561
0.001883963
0.001814865
0.001746604
0.001679431
0.001613592
0.001549392
0.001487101
0.001426901
0.001369003
0.001313698
0.001261169
0.001211508
0.001164797
0.001121245
0.001080935
0.001043803
0.001010134
0.0009799726
0.0009529947
0.0009298582
0.0009111176
0.0008958593
0.0008834569
0.0008745446
0.0008700733
0.0008698446
0.0008730402
0.000880428
0.0008923312
0.0009075697
0.0009262136
0.0009487101
0.0009752904
0.001006932
0.001043331
0.00108322
0.001128451
0.001180125
0.00123486
0.001291986
0.001356269
0.001426929
0.001501952
0.001581049
0.001670802
0.001766408
0.0018695
0.001980713
0.002094822
0.002214131
0.002345191
0.002488443
0.002646181
0.002803452
0.002967129
0.003143649
0.003327886
0.003537294
0.003746152
0.00396608
0.004190823
0.004428011
0.004678227
0.004964103
0.005231815
0.00550649
0.005824882
0.00616471
0.006500801
0.006816042
0.007125023
0.007474504
0.007753998
0.008089888
0.008314953
0.008644534
0.008971945
0.009293377
0.009553494
0.009704706
0.009763118
0.009827882
0.009931667
0.010201
0.01048845
0.01075646
0.01095565
0.01098084
0.01089278
0.01079742
0.01070599
0.0108335
0.01112015
0.01125928
0.01103905
0.01043392
0.009837161
0.009656955
0.009838617
0.009903842
0.00986921
0.009442473
0.009093505
0.009011417
0.009288536
0.009674176
0.009933673
0.01011564
0.0101501
0.009662565
0.008719691
0.007933666
0.007324016
0.00692295
0.00764063
0.001089943
0.00127871
0.001499071
0.001691844
0.001864541
0.002026051
0.002178328
0.002321102
0.002453134
0.002572979
0.002679651
0.002772489
0.002850894
0.00291438
0.002962749
0.002996139
0.003014913
0.003019658
0.003011238
0.002990629
0.002958767
0.002916578
0.002864977
0.002804863
0.002737224
0.002663091
0.002583398
0.002499028
0.002410838
0.002319566
0.00222586
0.002130358
0.002033739
0.001936697
0.001839808
0.001743537
0.001648331
0.001554636
0.00146285
0.001373262
0.001286112
0.00120169
0.001120281
0.001042048
0.0009671809
0.0008959143
0.0008283539
0.000764533
0.0007045749
0.0006486874
0.0005968344
0.0005490307
0.0005056426
0.0004664603
0.0004309488
0.0003999465
0.0003736358
0.0003509426
0.0003315456
0.0003166263
0.000306641
0.0002997379
0.0002966676
0.0002985054
0.0003043017
0.0003132408
0.0003256698
0.0003419365
0.0003626933
0.0003879026
0.0004172277
0.0004487148
0.0004858645
0.0005285803
0.000576408
0.0006247687
0.0006791098
0.0007378668
0.0008010619
0.0008698369
0.000949235
0.001035541
0.001129963
0.001223336
0.001326597
0.001440159
0.001566606
0.001709813
0.001860173
0.002014524
0.002180136
0.002358304
0.00257575
0.002789412
0.00302562
0.003277092
0.00354181
0.00382813
0.004140274
0.004464046
0.004808198
0.0051754
0.005554813
0.005981672
0.006381694
0.006777003
0.007153099
0.007495964
0.007880489
0.008148333
0.008581029
0.008906159
0.009330378
0.009605389
0.009833067
0.009961262
0.01006483
0.01011917
0.01037103
0.0107017
0.01091571
0.01111999
0.01120844
0.01124618
0.01124749
0.0110247
0.01089362
0.01117551
0.01136957
0.01141169
0.01098473
0.01031367
0.009789907
0.009653172
0.009764296
0.00983254
0.00949426
0.009263299
0.009085499
0.00921976
0.009557967
0.01005619
0.01078246
0.01141182
0.01125467
0.009954854
0.008726275
0.007885891
0.007328598
0.007823639
0.001256841
0.001473545
0.001725307
0.001944357
0.002139901
0.002322535
0.002494527
0.002655572
0.002804453
0.00293972
0.003060271
0.003165287
0.003254071
0.003326143
0.003381352
0.003419914
0.003442319
0.003449272
0.003441737
0.003420854
0.003387712
0.003343317
0.003288704
0.003224908
0.003152981
0.003074059
0.002989207
0.002899329
0.002805304
0.00270799
0.002608132
0.002506433
0.00240357
0.002300245
0.002197143
0.002094808
0.001993684
0.001894202
0.001796811
0.001701884
0.001609698
0.001520474
0.001434506
0.0013521
0.001273399
0.001198639
0.001128075
0.001061764
0.0009997003
0.0009421199
0.0008892119
0.0008408255
0.0007971265
0.0007584247
0.0007241193
0.000694112
0.0006693858
0.0006496208
0.0006336554
0.0006223122
0.0006165696
0.0006147167
0.0006174158
0.0006250222
0.0006378578
0.0006547778
0.0006753963
0.000700231
0.000729948
0.0007640357
0.0008054813
0.0008496809
0.0008945231
0.0009470052
0.001008523
0.001071917
0.00113915
0.001210729
0.001283397
0.001367704
0.001461376
0.001558197
0.00166664
0.001773414
0.001881152
0.002003755
0.002138496
0.002283573
0.002439411
0.002604543
0.002769157
0.002936402
0.003137766
0.003354357
0.003581351
0.00381928
0.004073827
0.004349366
0.00463591
0.004949157
0.005256996
0.005618786
0.005979128
0.006371285
0.006763867
0.007129845
0.007516487
0.007875645
0.008223225
0.008494735
0.008825899
0.009190284
0.009576882
0.009877834
0.01012695
0.01027623
0.01035921
0.01044874
0.01056794
0.01086514
0.01109308
0.01129266
0.01143972
0.01153455
0.01151333
0.01124834
0.01119752
0.0112667
0.01142988
0.01155419
0.01140366
0.01083235
0.01021756
0.009734146
0.009560017
0.009928373
0.009951537
0.009467873
0.009013057
0.008930418
0.00910491
0.009675407
0.0107777
0.01222232
0.01290272
0.01140382
0.009526097
0.008382306
0.007663696
0.00799078
0.0014228
0.001667549
0.00195116
0.00219711
0.00241611
0.002620447
0.002812722
0.002992504
0.003158389
0.003308666
0.003441918
0.003557059
0.003653247
0.003729981
0.003787139
0.003824964
0.003844038
0.003845201
0.003829547
0.003798395
0.00375307
0.003694764
0.003624657
0.003543992
0.003453993
0.003355919
0.003251045
0.003140462
0.003025123
0.002906024
0.002784092
0.002660158
0.002535023
0.00240943
0.002284157
0.002159916
0.002037252
0.001916597
0.001798394
0.001683113
0.001571142
0.001462754
0.001358163
0.001257705
0.001161697
0.001070244
0.000983589
0.000901931
0.0008252263
0.0007535028
0.000687054
0.0006259525
0.0005700316
0.0005196094
0.0004746917
0.0004344953
0.0003995118
0.0003704374
0.0003461268
0.0003266206
0.0003126106
0.0003031264
0.0002993237
0.0002996694
0.0003057116
0.0003166771
0.0003315513
0.0003507073
0.0003749158
0.0004029763
0.0004372577
0.0004792329
0.0005217429
0.0005676621
0.0006217486
0.0006829693
0.0007454776
0.0008132303
0.0008847914
0.0009618706
0.001052058
0.001143491
0.00124752
0.001364669
0.001468191
0.001587547
0.001722124
0.001871289
0.002026651
0.002194021
0.002367823
0.002551266
0.00274918
0.002980511
0.003218922
0.003476497
0.003744844
0.004024861
0.00434645
0.004694767
0.005022775
0.005386945
0.00578221
0.006178641
0.006588783
0.00701383
0.007412435
0.00777452
0.008151726
0.008508385
0.008782937
0.009129871
0.009552427
0.009884468
0.0101558
0.01035083
0.01046999
0.01055893
0.01067577
0.01091044
0.01104275
0.01130219
0.01149666
0.01161498
0.01159513
0.01154451
0.01132734
0.01123178
0.011412
0.01171023
0.0116576
0.01126716
0.01052533
0.009827744
0.00969448
0.009992655
0.01012708
0.009824729
0.009278571
0.00899987
0.009124814
0.009601277
0.01055739
0.01208015
0.01367871
0.01299902
0.01035399
0.00878987
0.0078759
0.008088766
0.001587967
0.001860819
0.002176635
0.002450135
0.002693469
0.002920602
0.00313445
0.003334395
0.003518808
0.00368575
0.003833579
0.003961034
0.004067189
0.004151536
0.004213998
0.004254876
0.004274851
0.004274947
0.004256439
0.004220813
0.004169607
0.004104221
0.004025956
0.00393619
0.003836327
0.00372772
0.003611755
0.003489724
0.003362671
0.003231604
0.003097594
0.002961576
0.002824447
0.002687029
0.002550079
0.002414393
0.00228063
0.002149285
0.002020747
0.001895472
0.001773935
0.001656501
0.0015434
0.001434836
0.001331186
0.001232736
0.00113953
0.001051859
0.0009698203
0.0008933273
0.0008225218
0.0007577064
0.0006987901
0.0006457704
0.0005989288
0.0005577247
0.0005217289
0.0004919597
0.0004682028
0.0004498364
0.0004366992
0.0004287915
0.0004278894
0.0004307654
0.0004398192
0.0004542158
0.0004733095
0.0004973972
0.0005267372
0.0005595113
0.0005978496
0.0006448549
0.0006944851
0.0007471016
0.0008067779
0.0008720396
0.0009411661
0.001016228
0.001093468
0.001174077
0.001270065
0.001365053
0.001468733
0.001591124
0.00170606
0.001822286
0.001952462
0.002099531
0.002258657
0.002427811
0.002598798
0.002776874
0.002970238
0.003188412
0.003418673
0.003673403
0.003936949
0.004212443
0.004512744
0.004849547
0.005168236
0.005528805
0.005904646
0.006299669
0.006700242
0.00710213
0.007495135
0.007873516
0.008240679
0.008602997
0.008862385
0.009164545
0.00959505
0.009935499
0.01021555
0.01043553
0.0105778
0.01065899
0.01072351
0.01089531
0.01109729
0.01129503
0.01160853
0.01164306
0.01167659
0.01174055
0.01146514
0.01120066
0.01133813
0.01172591
0.01183376
0.01160755
0.01098109
0.01022679
0.009814301
0.009896232
0.01017086
0.01015272
0.009683624
0.009206234
0.009240841
0.009610401
0.01038092
0.01167642
0.01374341
0.01430006
0.01131955
0.009225753
0.008112117
0.008211814
0.001752229
0.002053173
0.00240141
0.002702935
0.002971268
0.003222001
0.003458334
0.00367945
0.003883468
0.004068186
0.004231656
0.004372336
0.004489115
0.004581395
0.0046491
0.004692578
0.004712584
0.004710287
0.00468715
0.004644804
0.004584953
0.004509206
0.004419031
0.004315923
0.004201481
0.00407723
0.003944648
0.003805208
0.00366017
0.003510599
0.003357635
0.003202413
0.003045917
0.002889124
0.002732847
0.002577885
0.002425033
0.002274904
0.002127979
0.001984615
0.001845328
0.001710599
0.001580774
0.001456037
0.001336622
0.001222981
0.001115296
0.001013598
0.0009182313
0.0008291313
0.0007462346
0.0006697996
0.000599998
0.0005366727
0.0004800799
0.0004300768
0.0003857902
0.0003476038
0.0003163821
0.0002915131
0.000272087
0.0002582413
0.0002516487
0.0002501583
0.0002552654
0.0002651412
0.0002803185
0.0003013749
0.0003278756
0.0003585656
0.0003964241
0.0004400816
0.0004865872
0.0005396923
0.0005997164
0.0006630308
0.0007318193
0.0008074919
0.0008851128
0.0009681172
0.001062795
0.001157406
0.001268682
0.001383544
0.00151037
0.001628569
0.00175803
0.001906902
0.002071604
0.002243229
0.002419285
0.00260768
0.002806673
0.003021094
0.003258463
0.003532982
0.003799518
0.00407779
0.004388337
0.004716038
0.005051897
0.005418768
0.005801651
0.006187236
0.006616351
0.007016116
0.007387449
0.007796219
0.008158364
0.008554093
0.008854606
0.009109435
0.00950569
0.009849345
0.01016698
0.01043245
0.01060029
0.01069401
0.01074322
0.01089163
0.011032
0.01120614
0.0116026
0.01166045
0.01168414
0.01174876
0.0114721
0.01135939
0.01150076
0.0116458
0.01182594
0.01180725
0.01134247
0.01060155
0.01003477
0.009989391
0.01024043
0.01039389
0.01033373
0.009811227
0.009296424
0.009433137
0.01025572
0.01146301
0.01346807
0.01463434
0.01248721
0.009745762
0.008442811
0.008440682
0.001915269
0.002244217
0.00262498
0.002954916
0.003248891
0.003524105
0.003784051
0.004027693
0.004252856
0.004456996
0.004637788
0.004793365
0.004922418
0.005024291
0.00509894
0.005146776
0.005168634
0.005165813
0.005139965
0.005092904
0.005026497
0.004942561
0.004842784
0.004728809
0.00460239
0.004465267
0.004319038
0.004165276
0.004005468
0.003840823
0.003672507
0.003501787
0.003329792
0.003157581
0.002986114
0.00281617
0.002648583
0.002484083
0.002323239
0.002166481
0.002014164
0.001866862
0.001725018
0.001588924
0.001458715
0.001334689
0.001217336
0.00110665
0.001002741
0.000905898
0.0008159238
0.0007328881
0.0006570622
0.0005883903
0.0005268923
0.0004728653
0.0004255699
0.0003843634
0.0003503286
0.0003236472
0.0003034637
0.0002889829
0.000280702
0.000280323
0.0002864046
0.0002971334
0.0003138088
0.0003365722
0.0003653724
0.0003986712
0.0004367402
0.0004844527
0.0005363117
0.0005908744
0.0006539835
0.0007213528
0.0007926112
0.000871268
0.0009526746
0.001036939
0.001134478
0.001235768
0.001345224
0.001455422
0.001593776
0.001716057
0.001839678
0.001985939
0.002151787
0.00232432
0.002498729
0.002686804
0.002885267
0.003094894
0.00332071
0.003586338
0.003851893
0.004129871
0.004437437
0.004769426
0.005100998
0.00542981
0.005806166
0.006190677
0.006580071
0.006997084
0.007404363
0.007771449
0.008136015
0.008532346
0.008865194
0.009137857
0.009479456
0.009751245
0.01006255
0.01040569
0.01061441
0.01071438
0.01075331
0.0108643
0.01097673
0.01111691
0.01150805
0.01161475
0.01169666
0.01177201
0.01155518
0.01138876
0.01145063
0.01164865
0.01189734
0.01192652
0.01159685
0.01095336
0.01036387
0.01012983
0.01022573
0.01054854
0.01049779
0.009905598
0.009790063
0.009827101
0.01027336
0.01109411
0.0127087
0.01444623
0.01368171
0.01038883
0.009015175
0.008867353
0.002076587
0.002433354
0.002846615
0.003205216
0.003525354
0.00382582
0.004110384
0.004377771
0.004625469
0.004850536
0.005050219
0.005222281
0.005365181
0.005478169
0.005561178
0.005614628
0.005639374
0.005636788
0.005608687
0.005557082
0.005484005
0.00539146
0.005281357
0.005155529
0.005015863
0.004864303
0.004702622
0.004532482
0.004355536
0.004173239
0.00398683
0.003797635
0.003606996
0.00341603
0.00322586
0.003037357
0.002851319
0.002668582
0.002489813
0.002315553
0.002146147
0.001982073
0.001823889
0.001672002
0.001526646
0.001387939
0.001256302
0.001132142
0.001015327
0.0009061051
0.0008045426
0.0007105188
0.000624187
0.0005456803
0.0004749093
0.0004120987
0.0003571264
0.0003089986
0.0002678702
0.0002346165
0.0002091381
0.0001897182
0.000176437
0.0001727603
0.0001745584
0.000182201
0.0001969135
0.0002180112
0.0002446711
0.0002771459
0.0003141074
0.0003601956
0.0004136281
0.0004669781
0.0005306124
0.0006006557
0.0006724045
0.0007499528
0.0008355749
0.0009227044
0.001017139
0.001124287
0.001234787
0.001345209
0.00148282
0.001616321
0.00174308
0.001887073
0.002053359
0.002228767
0.002411725
0.002599992
0.002800036
0.003011501
0.003236982
0.003501734
0.003780245
0.004055447
0.004357956
0.004690128
0.00503105
0.005353716
0.005715375
0.00610472
0.006495737
0.006897432
0.00731325
0.007683674
0.008056294
0.008434331
0.008776635
0.009108284
0.00948196
0.009705706
0.009911152
0.0102725
0.01056985
0.01071608
0.01075189
0.0108027
0.01089865
0.01102587
0.01131342
0.01149576
0.01174966
0.01169666
0.01156205
0.01138672
0.01128846
0.01154206
0.01191826
0.01207174
0.01181456
0.01121975
0.01059048
0.01022933
0.01027364
0.01066735
0.01069091
0.01025605
0.01018826
0.0101092
0.01036731
0.01108337
0.01204211
0.01359302
0.01361828
0.01100902
0.01013321
0.009945251
0.00223553
0.002619809
0.003065384
0.00345276
0.003799459
0.004125859
0.004436019
0.00472843
0.005000231
0.005248044
0.005468624
0.005659292
0.005818208
0.005944474
0.006037952
0.006099018
0.006128511
0.006127854
0.006099017
0.006044226
0.005965703
0.005865635
0.00574616
0.005609343
0.005457243
0.005291987
0.005115583
0.004929828
0.004736495
0.004537283
0.004333613
0.004126863
0.003918494
0.0037098
0.003501958
0.003296029
0.003092808
0.002893141
0.002697798
0.00250741
0.00232247
0.002143265
0.001970408
0.001804394
0.001645587
0.001494123
0.001350162
0.001214294
0.001086614
0.0009670268
0.0008558877
0.0007529866
0.0006583544
0.0005721388
0.000494283
0.0004248645
0.0003642372
0.0003114548
0.0002658151
0.0002281222
0.0001993512
0.0001774102
0.0001621215
0.0001565128
0.0001566569
0.000163697
0.000177551
0.0001993336
0.0002271005
0.0002606422
0.0002983289
0.0003446998
0.0003998016
0.0004553486
0.0005196185
0.0005933845
0.0006686419
0.000747787
0.0008336986
0.000921444
0.001024801
0.001129548
0.001235438
0.001362196
0.001487075
0.001627579
0.001760137
0.001900558
0.00206171
0.002240564
0.002427086
0.002613589
0.00280922
0.003016718
0.003252086
0.003503783
0.003774435
0.004054581
0.004351482
0.004660716
0.00499652
0.005347118
0.005699055
0.006057684
0.006444612
0.006845175
0.007234345
0.007578669
0.007985736
0.008369788
0.008732081
0.009089285
0.009391713
0.009648994
0.009891817
0.01013679
0.01046315
0.01070347
0.01074378
0.01074388
0.01085572
0.01099028
0.01114933
0.01144157
0.01164952
0.01168082
0.01156252
0.0113664
0.01127998
0.01130957
0.01172239
0.01203784
0.01198312
0.01156666
0.01079541
0.01031439
0.01030319
0.01067135
0.01084411
0.01069486
0.01060465
0.01036144
0.01058151
0.01120276
0.01153669
0.01158714
0.01122244
0.01092511
0.01110656
0.01233449
0.00239132
0.002802661
0.003280189
0.003696273
0.004069766
0.004422632
0.004759243
0.00507788
0.005375327
0.00564774
0.00589132
0.006102861
0.006280143
0.006422049
0.006528308
0.006599174
0.006635401
0.006638415
0.006610305
0.006553497
0.006470416
0.006363429
0.006234896
0.006087138
0.005922431
0.005743078
0.00555133
0.005349186
0.005138533
0.004921259
0.004699047
0.004473357
0.004245727
0.00401766
0.00379038
0.003565118
0.003342788
0.003124198
0.002910213
0.002701536
0.002498773
0.002302296
0.002112514
0.001930054
0.001755361
0.001588724
0.001430177
0.001280065
0.001138989
0.001006706
0.0008833273
0.0007690508
0.0006636765
0.000567275
0.0004798765
0.0004014183
0.0003323261
0.0002722953
0.0002200336
0.0001757565
0.0001409403
0.0001139368
9.433229e-05
8.428153e-05
8.12722e-05
8.617537e-05
9.669455e-05
0.0001163195
0.0001428432
0.0001751591
0.0002128552
0.0002589012
0.0003143761
0.0003728669
0.0004328965
0.0005065282
0.0005858072
0.0006670898
0.0007547739
0.0008456041
0.0009467419
0.001056816
0.001162049
0.001289461
0.001419754
0.001561705
0.001695899
0.001837275
0.002001411
0.00218061
0.002370012
0.002560099
0.002756043
0.002960125
0.003192709
0.003445514
0.003716072
0.003997584
0.004291318
0.004603351
0.004931551
0.00527546
0.005613416
0.005977693
0.006352933
0.006758114
0.007158644
0.007516772
0.007890075
0.008258745
0.008627722
0.009003593
0.00931478
0.009563837
0.009827652
0.01010323
0.01035385
0.0105605
0.01068028
0.0107147
0.01078871
0.01079355
0.01096843
0.01140299
0.01156441
0.01164826
0.01160401
0.01132175
0.01114232
0.01117721
0.01154748
0.01197006
0.01212652
0.01172856
0.01105315
0.01044384
0.01031914
0.01065848
0.01097488
0.01110894
0.01096295
0.01076254
0.01119928
0.01200256
0.01267726
0.01258434
0.01259909
0.01228213
0.009724507
0.009094268
0.002543093
0.002980885
0.003489798
0.003934322
0.004334642
0.004714313
0.005078064
0.005424017
0.005748635
0.006047613
0.00631656
0.006551664
0.006750222
0.006910794
0.007032861
0.007116436
0.007162071
0.007171116
0.007145732
0.007088535
0.007002185
0.006889277
0.006752422
0.006594237
0.006417274
0.00622404
0.006017019
0.005798469
0.00557043
0.005334944
0.005093955
0.004849113
0.004602024
0.004354325
0.004107415
0.003862581
0.003620953
0.003383349
0.003150653
0.002923653
0.002703043
0.002489363
0.002282851
0.00208416
0.001893791
0.001712152
0.001539409
0.001375582
0.001221309
0.00107677
0.0009417357
0.0008165143
0.0007009035
0.0005949392
0.0004985855
0.0004118197
0.0003348951
0.0002679058
0.0002097836
0.0001599639
0.0001195712
8.867007e-05
6.528434e-05
5.052694e-05
4.578105e-05
4.885174e-05
5.802737e-05
7.573564e-05
0.0001015153
0.0001337159
0.0001711684
0.0002156347
0.0002729309
0.0003354397
0.0003965333
0.0004672013
0.0005483411
0.0006334799
0.0007237342
0.0008159371
0.0009129486
0.001028573
0.001141698
0.001255951
0.001400155
0.001542105
0.001677286
0.001818957
0.001979472
0.002159413
0.00235094
0.002543636
0.002739462
0.002942354
0.003168005
0.003418785
0.003690146
0.003974252
0.004261402
0.004558067
0.004890677
0.005237458
0.005555951
0.005901556
0.006292209
0.006685585
0.007061976
0.007432998
0.007816324
0.008176171
0.008549363
0.008924872
0.009230899
0.00949821
0.009796157
0.00998304
0.01019073
0.01052852
0.01062646
0.01066146
0.01069322
0.01068545
0.01082607
0.01119379
0.01142574
0.01162468
0.01150821
0.01131994
0.01114082
0.01110944
0.01140072
0.01187638
0.01215734
0.01179782
0.01115291
0.01064885
0.01036944
0.01065876
0.01102642
0.0113285
0.0115159
0.01166994
0.0120956
0.01309529
0.01436902
0.01365043
0.01164111
0.009996584
0.008349591
0.007973791
0.002689933
0.003153399
0.003692909
0.004165375
0.004592319
0.00499889
0.005390235
0.005764393
0.006117582
0.006445077
0.006741889
0.00700352
0.007226638
0.007409317
0.007550645
0.007650265
0.007708413
0.007726255
0.007705955
0.007650279
0.007562139
0.007444399
0.007299972
0.00713181
0.006942784
0.006735652
0.006513112
0.006277709
0.006031693
0.005777254
0.005516568
0.005251559
0.00498393
0.004715427
0.004447676
0.004181992
0.003919705
0.003661763
0.003409013
0.003162348
0.002922495
0.002690115
0.002465581
0.002249289
0.002041875
0.001843795
0.001655379
0.001476581
0.001307696
0.001149425
0.001001415
0.0008636781
0.0007364563
0.0006195165
0.0005128283
0.000416317
0.0003300511
0.0002545381
0.0001891165
0.0001326083
8.530592e-05
4.844452e-05
2.008888e-05
4.138237e-07
-7.767903e-06
-8.631444e-06
-1.998928e-06
1.308149e-05
3.669063e-05
6.804562e-05
0.0001063276
0.0001489067
0.0002019695
0.0002661513
0.0003310161
0.0004016571
0.0004824569
0.0005681553
0.0006586372
0.0007549435
0.0008564301
0.0009694879
0.001085097
0.001201645
0.00134444
0.001484497
0.001627901
0.001773323
0.001932489
0.002110426
0.002303758
0.002499771
0.002699078
0.002903396
0.003121697
0.003364184
0.003633293
0.003920033
0.004213144
0.004515384
0.004834949
0.005176572
0.005487388
0.005834129
0.006225695
0.00658781
0.006962825
0.007382461
0.007732554
0.008064172
0.008452106
0.008839972
0.009148201
0.009406292
0.009701825
0.009902341
0.01012308
0.01045498
0.01053499
0.01057721
0.01059563
0.01057347
0.01066341
0.01102347
0.0112947
0.01141678
0.01145345
0.01132168
0.010979
0.01098616
0.01126133
0.01172879
0.01205502
0.0119481
0.01133185
0.01073835
0.01045721
0.01063105
0.01100806
0.01152485
0.01197496
0.01225704
0.01260403
0.01352271
0.01425677
0.01311406
0.01097149
0.009326077
0.007838822
0.007392738
0.002830927
0.003319113
0.003888203
0.004387875
0.004840976
0.005274259
0.005693355
0.006096325
0.006479256
0.006837106
0.007164346
0.007455752
0.007707196
0.007916005
0.008080628
0.008200162
0.008274406
0.008304247
0.008291773
0.008239878
0.008151728
0.00803052
0.007879527
0.007702092
0.007501452
0.007280656
0.007042631
0.006790197
0.006525878
0.00625204
0.005971065
0.005685188
0.00539631
0.005106296
0.004816947
0.004529731