# Force        
# CofR         : (0.0000000e+00 0.0000000e+00 0.0000000e+00)
#
# Time         	(total_x total_y total_z)	(pressure_x pressure_y pressure_z)	(viscous_x viscous_y viscous_z)	(porous_x porous_y porous_z)
1              	(0.0000000e+00 0.0000000e+00 0.0000000e+00)	(0.0000000e+00 0.0000000e+00 0.0000000e+00)	(0.0000000e+00 0.0000000e+00 0.0000000e+00)	(0.0000000e+00 0.0000000e+00 0.0000000e+00)
2              	(0.0000000e+00 0.0000000e+00 0.0000000e+00)	(0.0000000e+00 0.0000000e+00 0.0000000e+00)	(0.0000000e+00 0.0000000e+00 0.0000000e+00)	(0.0000000e+00 0.0000000e+00 0.0000000e+00)
