# Force        
# CofR         : (0.0000000e+00 0.0000000e+00 0.0000000e+00)
#
# Time         	(total_x total_y total_z)	(pressure_x pressure_y pressure_z)	(viscous_x viscous_y viscous_z)	(porous_x porous_y porous_z)
1              	(5.8620459e-03 4.5492752e-05 1.7962245e-05)	(0.0000000e+00 0.0000000e+00 0.0000000e+00)	(0.0000000e+00 0.0000000e+00 0.0000000e+00)	(5.8620459e-03 4.5492752e-05 1.7962245e-05)
2              	(1.5051999e-02 2.1845208e-04 5.8891643e-04)	(0.0000000e+00 0.0000000e+00 0.0000000e+00)	(0.0000000e+00 0.0000000e+00 0.0000000e+00)	(1.5051999e-02 2.1845208e-04 5.8891643e-04)
3              	(3.3916968e-02 3.0677494e-04 1.3528537e-03)	(0.0000000e+00 0.0000000e+00 0.0000000e+00)	(0.0000000e+00 0.0000000e+00 0.0000000e+00)	(3.3916968e-02 3.0677494e-04 1.3528537e-03)
4              	(5.6983472e-02 4.0648326e-04 1.7307025e-03)	(0.0000000e+00 0.0000000e+00 0.0000000e+00)	(0.0000000e+00 0.0000000e+00 0.0000000e+00)	(5.6983472e-02 4.0648326e-04 1.7307025e-03)
5              	(8.3712950e-02 5.5354987e-04 1.7470139e-03)	(0.0000000e+00 0.0000000e+00 0.0000000e+00)	(0.0000000e+00 0.0000000e+00 0.0000000e+00)	(8.3712950e-02 5.5354987e-04 1.7470139e-03)
6              	(1.1480301e-01 7.2587554e-04 1.5982371e-03)	(0.0000000e+00 0.0000000e+00 0.0000000e+00)	(0.0000000e+00 0.0000000e+00 0.0000000e+00)	(1.1480301e-01 7.2587554e-04 1.5982371e-03)
7              	(1.5014722e-01 9.0213765e-04 1.3919219e-03)	(0.0000000e+00 0.0000000e+00 0.0000000e+00)	(0.0000000e+00 0.0000000e+00 0.0000000e+00)	(1.5014722e-01 9.0213765e-04 1.3919219e-03)
8              	(1.8870461e-01 1.0727158e-03 1.1622073e-03)	(0.0000000e+00 0.0000000e+00 0.0000000e+00)	(0.0000000e+00 0.0000000e+00 0.0000000e+00)	(1.8870461e-01 1.0727158e-03 1.1622073e-03)
9              	(2.2914873e-01 1.2330584e-03 9.3328875e-04)	(0.0000000e+00 0.0000000e+00 0.0000000e+00)	(0.0000000e+00 0.0000000e+00 0.0000000e+00)	(2.2914873e-01 1.2330584e-03 9.3328875e-04)
10             	(2.7028003e-01 1.3809243e-03 7.2339637e-04)	(0.0000000e+00 0.0000000e+00 0.0000000e+00)	(0.0000000e+00 0.0000000e+00 0.0000000e+00)	(2.7028003e-01 1.3809243e-03 7.2339637e-04)
11             	(3.1111073e-01 1.5150940e-03 5.4776677e-04)	(0.0000000e+00 0.0000000e+00 0.0000000e+00)	(0.0000000e+00 0.0000000e+00 0.0000000e+00)	(3.1111073e-01 1.5150940e-03 5.4776677e-04)
12             	(3.5084437e-01 1.6373622e-03 4.1154445e-04)	(0.0000000e+00 0.0000000e+00 0.0000000e+00)	(0.0000000e+00 0.0000000e+00 0.0000000e+00)	(3.5084437e-01 1.6373622e-03 4.1154445e-04)
13             	(3.8885374e-01 1.7488496e-03 3.1739137e-04)	(0.0000000e+00 0.0000000e+00 0.0000000e+00)	(0.0000000e+00 0.0000000e+00 0.0000000e+00)	(3.8885374e-01 1.7488496e-03 3.1739137e-04)
14             	(4.2471575e-01 1.8393882e-03 -1.2103427e-04)	(0.0000000e+00 0.0000000e+00 0.0000000e+00)	(0.0000000e+00 0.0000000e+00 0.0000000e+00)	(4.2471575e-01 1.8393882e-03 -1.2103427e-04)
15             	(4.5815636e-01 1.9176532e-03 -1.3134750e-04)	(0.0000000e+00 0.0000000e+00 0.0000000e+00)	(0.0000000e+00 0.0000000e+00 0.0000000e+00)	(4.5815636e-01 1.9176532e-03 -1.3134750e-04)
16             	(4.8902588e-01 1.9849270e-03 -4.6213728e-04)	(0.0000000e+00 0.0000000e+00 0.0000000e+00)	(0.0000000e+00 0.0000000e+00 0.0000000e+00)	(4.8902588e-01 1.9849270e-03 -4.6213728e-04)
17             	(5.1733772e-01 2.0342340e-03 -7.3882873e-04)	(0.0000000e+00 0.0000000e+00 0.0000000e+00)	(0.0000000e+00 0.0000000e+00 0.0000000e+00)	(5.1733772e-01 2.0342340e-03 -7.3882873e-04)
18             	(5.4314410e-01 2.0730326e-03 -9.7007320e-04)	(0.0000000e+00 0.0000000e+00 0.0000000e+00)	(0.0000000e+00 0.0000000e+00 0.0000000e+00)	(5.4314410e-01 2.0730326e-03 -9.7007320e-04)
19             	(5.6654094e-01 2.1159886e-03 -9.3560233e-04)	(0.0000000e+00 0.0000000e+00 0.0000000e+00)	(0.0000000e+00 0.0000000e+00 0.0000000e+00)	(5.6654094e-01 2.1159886e-03 -9.3560233e-04)
20             	(5.8771712e-01 2.1510339e-03 -1.0552593e-03)	(0.0000000e+00 0.0000000e+00 0.0000000e+00)	(0.0000000e+00 0.0000000e+00 0.0000000e+00)	(5.8771712e-01 2.1510339e-03 -1.0552593e-03)
21             	(6.0688367e-01 2.1712299e-03 -1.1394101e-03)	(0.0000000e+00 0.0000000e+00 0.0000000e+00)	(0.0000000e+00 0.0000000e+00 0.0000000e+00)	(6.0688367e-01 2.1712299e-03 -1.1394101e-03)
22             	(6.2419416e-01 2.1838326e-03 -1.1930854e-03)	(0.0000000e+00 0.0000000e+00 0.0000000e+00)	(0.0000000e+00 0.0000000e+00 0.0000000e+00)	(6.2419416e-01 2.1838326e-03 -1.1930854e-03)
23             	(6.3979963e-01 2.1937241e-03 -1.2136373e-03)	(0.0000000e+00 0.0000000e+00 0.0000000e+00)	(0.0000000e+00 0.0000000e+00 0.0000000e+00)	(6.3979963e-01 2.1937241e-03 -1.2136373e-03)
24             	(6.5385402e-01 2.2018817e-03 -1.2027725e-03)	(0.0000000e+00 0.0000000e+00 0.0000000e+00)	(0.0000000e+00 0.0000000e+00 0.0000000e+00)	(6.5385402e-01 2.2018817e-03 -1.2027725e-03)
25             	(6.6649436e-01 2.2053283e-03 -1.1791423e-03)	(0.0000000e+00 0.0000000e+00 0.0000000e+00)	(0.0000000e+00 0.0000000e+00 0.0000000e+00)	(6.6649436e-01 2.2053283e-03 -1.1791423e-03)
26             	(6.7815624e-01 2.2151313e-03 -1.0472420e-03)	(0.0000000e+00 0.0000000e+00 0.0000000e+00)	(0.0000000e+00 0.0000000e+00 0.0000000e+00)	(6.7815624e-01 2.2151313e-03 -1.0472420e-03)
27             	(6.8852445e-01 2.2552140e-03 -8.9900121e-04)	(0.0000000e+00 0.0000000e+00 0.0000000e+00)	(0.0000000e+00 0.0000000e+00 0.0000000e+00)	(6.8852445e-01 2.2552140e-03 -8.9900121e-04)
28             	(6.9781698e-01 2.2997647e-03 -7.5874740e-04)	(0.0000000e+00 0.0000000e+00 0.0000000e+00)	(0.0000000e+00 0.0000000e+00 0.0000000e+00)	(6.9781698e-01 2.2997647e-03 -7.5874740e-04)
29             	(7.0616064e-01 2.3365359e-03 -6.3779587e-04)	(0.0000000e+00 0.0000000e+00 0.0000000e+00)	(0.0000000e+00 0.0000000e+00 0.0000000e+00)	(7.0616064e-01 2.3365359e-03 -6.3779587e-04)
30             	(7.1366477e-01 2.3630956e-03 -5.3736438e-04)	(0.0000000e+00 0.0000000e+00 0.0000000e+00)	(0.0000000e+00 0.0000000e+00 0.0000000e+00)	(7.1366477e-01 2.3630956e-03 -5.3736438e-04)
31             	(7.2042361e-01 2.3808646e-03 -4.5572812e-04)	(0.0000000e+00 0.0000000e+00 0.0000000e+00)	(0.0000000e+00 0.0000000e+00 0.0000000e+00)	(7.2042361e-01 2.3808646e-03 -4.5572812e-04)
32             	(7.2650097e-01 2.3920513e-03 -3.8826714e-04)	(0.0000000e+00 0.0000000e+00 0.0000000e+00)	(0.0000000e+00 0.0000000e+00 0.0000000e+00)	(7.2650097e-01 2.3920513e-03 -3.8826714e-04)
33             	(7.3195964e-01 2.3960853e-03 -3.3271834e-04)	(0.0000000e+00 0.0000000e+00 0.0000000e+00)	(0.0000000e+00 0.0000000e+00 0.0000000e+00)	(7.3195964e-01 2.3960853e-03 -3.3271834e-04)
34             	(7.3684710e-01 2.3937119e-03 -2.8600240e-04)	(0.0000000e+00 0.0000000e+00 0.0000000e+00)	(0.0000000e+00 0.0000000e+00 0.0000000e+00)	(7.3684710e-01 2.3937119e-03 -2.8600240e-04)
35             	(7.4119671e-01 2.3849267e-03 -2.4463565e-04)	(0.0000000e+00 0.0000000e+00 0.0000000e+00)	(0.0000000e+00 0.0000000e+00 0.0000000e+00)	(7.4119671e-01 2.3849267e-03 -2.4463565e-04)
36             	(7.4505807e-01 2.3699067e-03 -2.0886849e-04)	(0.0000000e+00 0.0000000e+00 0.0000000e+00)	(0.0000000e+00 0.0000000e+00 0.0000000e+00)	(7.4505807e-01 2.3699067e-03 -2.0886849e-04)
37             	(7.4846638e-01 2.3497925e-03 -1.7750319e-04)	(0.0000000e+00 0.0000000e+00 0.0000000e+00)	(0.0000000e+00 0.0000000e+00 0.0000000e+00)	(7.4846638e-01 2.3497925e-03 -1.7750319e-04)
38             	(7.5145389e-01 2.3250892e-03 -1.4888412e-04)	(0.0000000e+00 0.0000000e+00 0.0000000e+00)	(0.0000000e+00 0.0000000e+00 0.0000000e+00)	(7.5145389e-01 2.3250892e-03 -1.4888412e-04)
39             	(7.5405956e-01 2.2971307e-03 -1.2291411e-04)	(0.0000000e+00 0.0000000e+00 0.0000000e+00)	(0.0000000e+00 0.0000000e+00 0.0000000e+00)	(7.5405956e-01 2.2971307e-03 -1.2291411e-04)
40             	(7.5632163e-01 2.2673717e-03 -9.9088932e-05)	(0.0000000e+00 0.0000000e+00 0.0000000e+00)	(0.0000000e+00 0.0000000e+00 0.0000000e+00)	(7.5632163e-01 2.2673717e-03 -9.9088932e-05)
41             	(7.5826983e-01 2.2370216e-03 -7.6806395e-05)	(0.0000000e+00 0.0000000e+00 0.0000000e+00)	(0.0000000e+00 0.0000000e+00 0.0000000e+00)	(7.5826983e-01 2.2370216e-03 -7.6806395e-05)
42             	(7.5993437e-01 2.2071295e-03 -5.5643063e-05)	(0.0000000e+00 0.0000000e+00 0.0000000e+00)	(0.0000000e+00 0.0000000e+00 0.0000000e+00)	(7.5993437e-01 2.2071295e-03 -5.5643063e-05)
43             	(7.6134614e-01 2.1784004e-03 -3.5076612e-05)	(0.0000000e+00 0.0000000e+00 0.0000000e+00)	(0.0000000e+00 0.0000000e+00 0.0000000e+00)	(7.6134614e-01 2.1784004e-03 -3.5076612e-05)
44             	(7.6253656e-01 2.1513858e-03 -1.4716906e-05)	(0.0000000e+00 0.0000000e+00 0.0000000e+00)	(0.0000000e+00 0.0000000e+00 0.0000000e+00)	(7.6253656e-01 2.1513858e-03 -1.4716906e-05)
45             	(7.6353197e-01 2.1265864e-03 5.6956441e-06)	(0.0000000e+00 0.0000000e+00 0.0000000e+00)	(0.0000000e+00 0.0000000e+00 0.0000000e+00)	(7.6353197e-01 2.1265864e-03 5.6956441e-06)
46             	(7.6436206e-01 2.1043700e-03 2.6248553e-05)	(0.0000000e+00 0.0000000e+00 0.0000000e+00)	(0.0000000e+00 0.0000000e+00 0.0000000e+00)	(7.6436206e-01 2.1043700e-03 2.6248553e-05)
47             	(7.6505107e-01 2.0850617e-03 4.6825900e-05)	(0.0000000e+00 0.0000000e+00 0.0000000e+00)	(0.0000000e+00 0.0000000e+00 0.0000000e+00)	(7.6505107e-01 2.0850617e-03 4.6825900e-05)
48             	(7.6562208e-01 2.0688467e-03 6.7237540e-05)	(0.0000000e+00 0.0000000e+00 0.0000000e+00)	(0.0000000e+00 0.0000000e+00 0.0000000e+00)	(7.6562208e-01 2.0688467e-03 6.7237540e-05)
49             	(7.6609527e-01 2.0557397e-03 8.7159180e-05)	(0.0000000e+00 0.0000000e+00 0.0000000e+00)	(0.0000000e+00 0.0000000e+00 0.0000000e+00)	(7.6609527e-01 2.0557397e-03 8.7159180e-05)
50             	(7.6648864e-01 2.0456388e-03 1.0621634e-04)	(0.0000000e+00 0.0000000e+00 0.0000000e+00)	(0.0000000e+00 0.0000000e+00 0.0000000e+00)	(7.6648864e-01 2.0456388e-03 1.0621634e-04)
51             	(7.6681752e-01 2.0383361e-03 1.2401862e-04)	(0.0000000e+00 0.0000000e+00 0.0000000e+00)	(0.0000000e+00 0.0000000e+00 0.0000000e+00)	(7.6681752e-01 2.0383361e-03 1.2401862e-04)
52             	(7.6709469e-01 2.0335471e-03 1.4018767e-04)	(0.0000000e+00 0.0000000e+00 0.0000000e+00)	(0.0000000e+00 0.0000000e+00 0.0000000e+00)	(7.6709469e-01 2.0335471e-03 1.4018767e-04)
53             	(7.6733033e-01 2.0309435e-03 1.5445270e-04)	(0.0000000e+00 0.0000000e+00 0.0000000e+00)	(0.0000000e+00 0.0000000e+00 0.0000000e+00)	(7.6733033e-01 2.0309435e-03 1.5445270e-04)
54             	(7.6753276e-01 2.0301636e-03 1.6664071e-04)	(0.0000000e+00 0.0000000e+00 0.0000000e+00)	(0.0000000e+00 0.0000000e+00 0.0000000e+00)	(7.6753276e-01 2.0301636e-03 1.6664071e-04)
55             	(7.6770846e-01 2.0308479e-03 1.7670510e-04)	(0.0000000e+00 0.0000000e+00 0.0000000e+00)	(0.0000000e+00 0.0000000e+00 0.0000000e+00)	(7.6770846e-01 2.0308479e-03 1.7670510e-04)
56             	(7.6786243e-01 2.0326454e-03 1.8472511e-04)	(0.0000000e+00 0.0000000e+00 0.0000000e+00)	(0.0000000e+00 0.0000000e+00 0.0000000e+00)	(7.6786243e-01 2.0326454e-03 1.8472511e-04)
57             	(7.6799856e-01 2.0352394e-03 1.9087075e-04)	(0.0000000e+00 0.0000000e+00 0.0000000e+00)	(0.0000000e+00 0.0000000e+00 0.0000000e+00)	(7.6799856e-01 2.0352394e-03 1.9087075e-04)
58             	(7.6811971e-01 2.0383485e-03 1.9537343e-04)	(0.0000000e+00 0.0000000e+00 0.0000000e+00)	(0.0000000e+00 0.0000000e+00 0.0000000e+00)	(7.6811971e-01 2.0383485e-03 1.9537343e-04)
59             	(7.6822816e-01 2.0417447e-03 1.9849579e-04)	(0.0000000e+00 0.0000000e+00 0.0000000e+00)	(0.0000000e+00 0.0000000e+00 0.0000000e+00)	(7.6822816e-01 2.0417447e-03 1.9849579e-04)
60             	(7.6832556e-01 2.0452453e-03 2.0050233e-04)	(0.0000000e+00 0.0000000e+00 0.0000000e+00)	(0.0000000e+00 0.0000000e+00 0.0000000e+00)	(7.6832556e-01 2.0452453e-03 2.0050233e-04)
61             	(7.6841318e-01 2.0487087e-03 2.0164267e-04)	(0.0000000e+00 0.0000000e+00 0.0000000e+00)	(0.0000000e+00 0.0000000e+00 0.0000000e+00)	(7.6841318e-01 2.0487087e-03 2.0164267e-04)
62             	(7.6849211e-01 2.0520299e-03 2.0213897e-04)	(0.0000000e+00 0.0000000e+00 0.0000000e+00)	(0.0000000e+00 0.0000000e+00 0.0000000e+00)	(7.6849211e-01 2.0520299e-03 2.0213897e-04)
63             	(7.6856321e-01 2.0551378e-03 2.0217785e-04)	(0.0000000e+00 0.0000000e+00 0.0000000e+00)	(0.0000000e+00 0.0000000e+00 0.0000000e+00)	(7.6856321e-01 2.0551378e-03 2.0217785e-04)
64             	(7.6862723e-01 2.0579885e-03 2.0190813e-04)	(0.0000000e+00 0.0000000e+00 0.0000000e+00)	(0.0000000e+00 0.0000000e+00 0.0000000e+00)	(7.6862723e-01 2.0579885e-03 2.0190813e-04)
65             	(7.6868480e-01 2.0605522e-03 2.0144298e-04)	(0.0000000e+00 0.0000000e+00 0.0000000e+00)	(0.0000000e+00 0.0000000e+00 0.0000000e+00)	(7.6868480e-01 2.0605522e-03 2.0144298e-04)
66             	(7.6873647e-01 2.0628158e-03 2.0086571e-04)	(0.0000000e+00 0.0000000e+00 0.0000000e+00)	(0.0000000e+00 0.0000000e+00 0.0000000e+00)	(7.6873647e-01 2.0628158e-03 2.0086571e-04)
67             	(7.6878287e-01 2.0647942e-03 2.0023888e-04)	(0.0000000e+00 0.0000000e+00 0.0000000e+00)	(0.0000000e+00 0.0000000e+00 0.0000000e+00)	(7.6878287e-01 2.0647942e-03 2.0023888e-04)
68             	(7.6882450e-01 2.0665205e-03 1.9959717e-04)	(0.0000000e+00 0.0000000e+00 0.0000000e+00)	(0.0000000e+00 0.0000000e+00 0.0000000e+00)	(7.6882450e-01 2.0665205e-03 1.9959717e-04)
69             	(7.6886183e-01 2.0680223e-03 1.9896724e-04)	(0.0000000e+00 0.0000000e+00 0.0000000e+00)	(0.0000000e+00 0.0000000e+00 0.0000000e+00)	(7.6886183e-01 2.0680223e-03 1.9896724e-04)
70             	(7.6889532e-01 2.0693283e-03 1.9836710e-04)	(0.0000000e+00 0.0000000e+00 0.0000000e+00)	(0.0000000e+00 0.0000000e+00 0.0000000e+00)	(7.6889532e-01 2.0693283e-03 1.9836710e-04)
71             	(7.6892530e-01 2.0704630e-03 1.9780400e-04)	(0.0000000e+00 0.0000000e+00 0.0000000e+00)	(0.0000000e+00 0.0000000e+00 0.0000000e+00)	(7.6892530e-01 2.0704630e-03 1.9780400e-04)
72             	(7.6895214e-01 2.0714455e-03 1.9728586e-04)	(0.0000000e+00 0.0000000e+00 0.0000000e+00)	(0.0000000e+00 0.0000000e+00 0.0000000e+00)	(7.6895214e-01 2.0714455e-03 1.9728586e-04)
73             	(7.6897608e-01 2.0722910e-03 1.9681414e-04)	(0.0000000e+00 0.0000000e+00 0.0000000e+00)	(0.0000000e+00 0.0000000e+00 0.0000000e+00)	(7.6897608e-01 2.0722910e-03 1.9681414e-04)
74             	(7.6899757e-01 2.0730230e-03 1.9638623e-04)	(0.0000000e+00 0.0000000e+00 0.0000000e+00)	(0.0000000e+00 0.0000000e+00 0.0000000e+00)	(7.6899757e-01 2.0730230e-03 1.9638623e-04)
75             	(7.6901684e-01 2.0736559e-03 1.9599953e-04)	(0.0000000e+00 0.0000000e+00 0.0000000e+00)	(0.0000000e+00 0.0000000e+00 0.0000000e+00)	(7.6901684e-01 2.0736559e-03 1.9599953e-04)
76             	(7.6903405e-01 2.0742001e-03 1.9565100e-04)	(0.0000000e+00 0.0000000e+00 0.0000000e+00)	(0.0000000e+00 0.0000000e+00 0.0000000e+00)	(7.6903405e-01 2.0742001e-03 1.9565100e-04)
77             	(7.6904944e-01 2.0746623e-03 1.9533800e-04)	(0.0000000e+00 0.0000000e+00 0.0000000e+00)	(0.0000000e+00 0.0000000e+00 0.0000000e+00)	(7.6904944e-01 2.0746623e-03 1.9533800e-04)
78             	(7.6906323e-01 2.0750570e-03 1.9505706e-04)	(0.0000000e+00 0.0000000e+00 0.0000000e+00)	(0.0000000e+00 0.0000000e+00 0.0000000e+00)	(7.6906323e-01 2.0750570e-03 1.9505706e-04)
79             	(7.6907555e-01 2.0753992e-03 1.9480612e-04)	(0.0000000e+00 0.0000000e+00 0.0000000e+00)	(0.0000000e+00 0.0000000e+00 0.0000000e+00)	(7.6907555e-01 2.0753992e-03 1.9480612e-04)
80             	(7.6908658e-01 2.0757001e-03 1.9458357e-04)	(0.0000000e+00 0.0000000e+00 0.0000000e+00)	(0.0000000e+00 0.0000000e+00 0.0000000e+00)	(7.6908658e-01 2.0757001e-03 1.9458357e-04)
81             	(7.6909646e-01 2.0759685e-03 1.9438484e-04)	(0.0000000e+00 0.0000000e+00 0.0000000e+00)	(0.0000000e+00 0.0000000e+00 0.0000000e+00)	(7.6909646e-01 2.0759685e-03 1.9438484e-04)
82             	(7.6910527e-01 2.0762052e-03 1.9420750e-04)	(0.0000000e+00 0.0000000e+00 0.0000000e+00)	(0.0000000e+00 0.0000000e+00 0.0000000e+00)	(7.6910527e-01 2.0762052e-03 1.9420750e-04)
83             	(7.6911312e-01 2.0764107e-03 1.9405006e-04)	(0.0000000e+00 0.0000000e+00 0.0000000e+00)	(0.0000000e+00 0.0000000e+00 0.0000000e+00)	(7.6911312e-01 2.0764107e-03 1.9405006e-04)
84             	(7.6912010e-01 2.0765886e-03 1.9391103e-04)	(0.0000000e+00 0.0000000e+00 0.0000000e+00)	(0.0000000e+00 0.0000000e+00 0.0000000e+00)	(7.6912010e-01 2.0765886e-03 1.9391103e-04)
85             	(7.6912634e-01 2.0767430e-03 1.9378785e-04)	(0.0000000e+00 0.0000000e+00 0.0000000e+00)	(0.0000000e+00 0.0000000e+00 0.0000000e+00)	(7.6912634e-01 2.0767430e-03 1.9378785e-04)
86             	(7.6913191e-01 2.0768695e-03 1.9367796e-04)	(0.0000000e+00 0.0000000e+00 0.0000000e+00)	(0.0000000e+00 0.0000000e+00 0.0000000e+00)	(7.6913191e-01 2.0768695e-03 1.9367796e-04)
87             	(7.6913689e-01 2.0769640e-03 1.9357903e-04)	(0.0000000e+00 0.0000000e+00 0.0000000e+00)	(0.0000000e+00 0.0000000e+00 0.0000000e+00)	(7.6913689e-01 2.0769640e-03 1.9357903e-04)
88             	(7.6914134e-01 2.0770314e-03 1.9348958e-04)	(0.0000000e+00 0.0000000e+00 0.0000000e+00)	(0.0000000e+00 0.0000000e+00 0.0000000e+00)	(7.6914134e-01 2.0770314e-03 1.9348958e-04)
89             	(7.6914532e-01 2.0770792e-03 1.9340968e-04)	(0.0000000e+00 0.0000000e+00 0.0000000e+00)	(0.0000000e+00 0.0000000e+00 0.0000000e+00)	(7.6914532e-01 2.0770792e-03 1.9340968e-04)
90             	(7.6914886e-01 2.0771128e-03 1.9333771e-04)	(0.0000000e+00 0.0000000e+00 0.0000000e+00)	(0.0000000e+00 0.0000000e+00 0.0000000e+00)	(7.6914886e-01 2.0771128e-03 1.9333771e-04)
91             	(7.6915201e-01 2.0771412e-03 1.9327374e-04)	(0.0000000e+00 0.0000000e+00 0.0000000e+00)	(0.0000000e+00 0.0000000e+00 0.0000000e+00)	(7.6915201e-01 2.0771412e-03 1.9327374e-04)
92             	(7.6915480e-01 2.0771668e-03 1.9321773e-04)	(0.0000000e+00 0.0000000e+00 0.0000000e+00)	(0.0000000e+00 0.0000000e+00 0.0000000e+00)	(7.6915480e-01 2.0771668e-03 1.9321773e-04)
93             	(7.6915725e-01 2.0771957e-03 1.9316946e-04)	(0.0000000e+00 0.0000000e+00 0.0000000e+00)	(0.0000000e+00 0.0000000e+00 0.0000000e+00)	(7.6915725e-01 2.0771957e-03 1.9316946e-04)
94             	(7.6915941e-01 2.0772307e-03 1.9312844e-04)	(0.0000000e+00 0.0000000e+00 0.0000000e+00)	(0.0000000e+00 0.0000000e+00 0.0000000e+00)	(7.6915941e-01 2.0772307e-03 1.9312844e-04)
95             	(7.6916130e-01 2.0772717e-03 1.9309377e-04)	(0.0000000e+00 0.0000000e+00 0.0000000e+00)	(0.0000000e+00 0.0000000e+00 0.0000000e+00)	(7.6916130e-01 2.0772717e-03 1.9309377e-04)
96             	(7.6916296e-01 2.0773140e-03 1.9306428e-04)	(0.0000000e+00 0.0000000e+00 0.0000000e+00)	(0.0000000e+00 0.0000000e+00 0.0000000e+00)	(7.6916296e-01 2.0773140e-03 1.9306428e-04)
97             	(7.6916442e-01 2.0773508e-03 1.9303866e-04)	(0.0000000e+00 0.0000000e+00 0.0000000e+00)	(0.0000000e+00 0.0000000e+00 0.0000000e+00)	(7.6916442e-01 2.0773508e-03 1.9303866e-04)
98             	(7.6916572e-01 2.0773728e-03 1.9301541e-04)	(0.0000000e+00 0.0000000e+00 0.0000000e+00)	(0.0000000e+00 0.0000000e+00 0.0000000e+00)	(7.6916572e-01 2.0773728e-03 1.9301541e-04)
99             	(7.6916690e-01 2.0773658e-03 1.9299234e-04)	(0.0000000e+00 0.0000000e+00 0.0000000e+00)	(0.0000000e+00 0.0000000e+00 0.0000000e+00)	(7.6916690e-01 2.0773658e-03 1.9299234e-04)
100            	(7.6916797e-01 2.0773264e-03 1.9296845e-04)	(0.0000000e+00 0.0000000e+00 0.0000000e+00)	(0.0000000e+00 0.0000000e+00 0.0000000e+00)	(7.6916797e-01 2.0773264e-03 1.9296845e-04)
101            	(7.6916896e-01 2.0772588e-03 1.9294339e-04)	(0.0000000e+00 0.0000000e+00 0.0000000e+00)	(0.0000000e+00 0.0000000e+00 0.0000000e+00)	(7.6916896e-01 2.0772588e-03 1.9294339e-04)
102            	(7.6916988e-01 2.0771724e-03 1.9291758e-04)	(0.0000000e+00 0.0000000e+00 0.0000000e+00)	(0.0000000e+00 0.0000000e+00 0.0000000e+00)	(7.6916988e-01 2.0771724e-03 1.9291758e-04)
103            	(7.6917071e-01 2.0770841e-03 1.9289247e-04)	(0.0000000e+00 0.0000000e+00 0.0000000e+00)	(0.0000000e+00 0.0000000e+00 0.0000000e+00)	(7.6917071e-01 2.0770841e-03 1.9289247e-04)
104            	(7.6917143e-01 2.0770104e-03 1.9287004e-04)	(0.0000000e+00 0.0000000e+00 0.0000000e+00)	(0.0000000e+00 0.0000000e+00 0.0000000e+00)	(7.6917143e-01 2.0770104e-03 1.9287004e-04)
105            	(7.6917201e-01 2.0769714e-03 1.9285308e-04)	(0.0000000e+00 0.0000000e+00 0.0000000e+00)	(0.0000000e+00 0.0000000e+00 0.0000000e+00)	(7.6917201e-01 2.0769714e-03 1.9285308e-04)
106            	(7.6917242e-01 2.0769868e-03 1.9284365e-04)	(0.0000000e+00 0.0000000e+00 0.0000000e+00)	(0.0000000e+00 0.0000000e+00 0.0000000e+00)	(7.6917242e-01 2.0769868e-03 1.9284365e-04)
107            	(7.6917270e-01 2.0770501e-03 1.9284217e-04)	(0.0000000e+00 0.0000000e+00 0.0000000e+00)	(0.0000000e+00 0.0000000e+00 0.0000000e+00)	(7.6917270e-01 2.0770501e-03 1.9284217e-04)
108            	(7.6917286e-01 2.0771503e-03 1.9284749e-04)	(0.0000000e+00 0.0000000e+00 0.0000000e+00)	(0.0000000e+00 0.0000000e+00 0.0000000e+00)	(7.6917286e-01 2.0771503e-03 1.9284749e-04)
109            	(7.6917292e-01 2.0772771e-03 1.9285807e-04)	(0.0000000e+00 0.0000000e+00 0.0000000e+00)	(0.0000000e+00 0.0000000e+00 0.0000000e+00)	(7.6917292e-01 2.0772771e-03 1.9285807e-04)
110            	(7.6917291e-01 2.0774196e-03 1.9287229e-04)	(0.0000000e+00 0.0000000e+00 0.0000000e+00)	(0.0000000e+00 0.0000000e+00 0.0000000e+00)	(7.6917291e-01 2.0774196e-03 1.9287229e-04)
111            	(7.6917285e-01 2.0775667e-03 1.9288845e-04)	(0.0000000e+00 0.0000000e+00 0.0000000e+00)	(0.0000000e+00 0.0000000e+00 0.0000000e+00)	(7.6917285e-01 2.0775667e-03 1.9288845e-04)
112            	(7.6917277e-01 2.0777053e-03 1.9290488e-04)	(0.0000000e+00 0.0000000e+00 0.0000000e+00)	(0.0000000e+00 0.0000000e+00 0.0000000e+00)	(7.6917277e-01 2.0777053e-03 1.9290488e-04)
113            	(7.6917268e-01 2.0778312e-03 1.9292030e-04)	(0.0000000e+00 0.0000000e+00 0.0000000e+00)	(0.0000000e+00 0.0000000e+00 0.0000000e+00)	(7.6917268e-01 2.0778312e-03 1.9292030e-04)
114            	(7.6917260e-01 2.0779386e-03 1.9293381e-04)	(0.0000000e+00 0.0000000e+00 0.0000000e+00)	(0.0000000e+00 0.0000000e+00 0.0000000e+00)	(7.6917260e-01 2.0779386e-03 1.9293381e-04)
115            	(7.6917254e-01 2.0780223e-03 1.9294455e-04)	(0.0000000e+00 0.0000000e+00 0.0000000e+00)	(0.0000000e+00 0.0000000e+00 0.0000000e+00)	(7.6917254e-01 2.0780223e-03 1.9294455e-04)
116            	(7.6917252e-01 2.0780801e-03 1.9295174e-04)	(0.0000000e+00 0.0000000e+00 0.0000000e+00)	(0.0000000e+00 0.0000000e+00 0.0000000e+00)	(7.6917252e-01 2.0780801e-03 1.9295174e-04)
117            	(7.6917254e-01 2.0781156e-03 1.9295533e-04)	(0.0000000e+00 0.0000000e+00 0.0000000e+00)	(0.0000000e+00 0.0000000e+00 0.0000000e+00)	(7.6917254e-01 2.0781156e-03 1.9295533e-04)
118            	(7.6917260e-01 2.0781319e-03 1.9295550e-04)	(0.0000000e+00 0.0000000e+00 0.0000000e+00)	(0.0000000e+00 0.0000000e+00 0.0000000e+00)	(7.6917260e-01 2.0781319e-03 1.9295550e-04)
119            	(7.6917272e-01 2.0781285e-03 1.9295230e-04)	(0.0000000e+00 0.0000000e+00 0.0000000e+00)	(0.0000000e+00 0.0000000e+00 0.0000000e+00)	(7.6917272e-01 2.0781285e-03 1.9295230e-04)
120            	(7.6917288e-01 2.0781081e-03 1.9294597e-04)	(0.0000000e+00 0.0000000e+00 0.0000000e+00)	(0.0000000e+00 0.0000000e+00 0.0000000e+00)	(7.6917288e-01 2.0781081e-03 1.9294597e-04)
