/*--------------------------------*- C++ -*----------------------------------*\
| =========                 |                                                 |
| \\      /  F ield         | OpenFOAM: The Open Source CFD Toolbox           |
|  \\    /   O peration     | Version:  2106                                  |
|   \\  /    A nd           | Website:  www.openfoam.com                      |
|    \\/     M anipulation  |                                                 |
\*---------------------------------------------------------------------------*/
FoamFile
{
    version     2.0;
    format      ascii;
    arch        "LSB;label=32;scalar=64";
    class       volScalarField;
    location    "120";
    object      p;
}
// * * * * * * * * * * * * * * * * * * * * * * * * * * * * * * * * * * * * * //

dimensions      [ 0 2 -2 0 0 0 0 ];

internalField   nonuniform List<scalar> 
300000
(
0.000192448
0.000282054
0.0003888308
0.000492634
0.00059446
0.0006957076
0.0007963115
0.000895808
0.0009937114
0.001089524
0.001182719
0.001272757
0.001359109
0.001441285
0.001518851
0.001591441
0.001658769
0.001720624
0.001776871
0.001827449
0.001872353
0.001911639
0.001945402
0.001973778
0.001996931
0.002015051
0.002028341
0.002037022
0.002041322
0.002041475
0.002037719
0.002030292
0.002019432
0.002005373
0.001988345
0.001968573
0.001946274
0.001921661
0.001894936
0.001866296
0.001835931
0.001804022
0.001770742
0.001736261
0.001700738
0.001664328
0.001627179
0.001589431
0.001551219
0.001512672
0.00147391
0.00143505
0.001396198
0.001357455
0.001318917
0.00128067
0.001242797
0.001205371
0.00116846
0.001132128
0.00109643
0.001061417
0.001027134
0.0009936205
0.0009609117
0.0009290371
0.000898022
0.0008678868
0.0008386478
0.0008103173
0.0007829036
0.000756411
0.0007308404
0.0007061893
0.0006824518
0.0006596187
0.0006376779
0.0006166145
0.0005964109
0.0005770473
0.0005585021
0.0005407523
0.0005237739
0.0005075417
0.0004920309
0.0004772167
0.000463075
0.0004495824
0.0004367173
0.0004244583
0.0004127859
0.000401682
0.0003911315
0.000381121
0.0003716401
0.0003626814
0.0003542406
0.000346316
0.000338909
0.000332027
0.0003256789
0.0003198789
0.0003146457
0.0003100018
0.0003059742
0.0003025968
0.0002999054
0.0002979415
0.0002967542
0.0002963945
0.0002969185
0.0002983908
0.0003008849
0.0003044755
0.0003092482
0.0003152985
0.000322733
0.0003316732
0.0003422544
0.0003546377
0.0003690044
0.0003855623
0.0004045744
0.0004263499
0.0004512551
0.0004797468
0.0005124345
0.0005500567
0.0005935726
0.0006442898
0.000703987
0.0007751663
0.0008613734
0.0009679131
0.001102879
0.00127906
0.001517293
0.001852935
0.002347631
0.003113418
0.004360569
0.00649753
0.01034156
0.01755551
0.03146282
0.05850902
0.1028639
0.189728
0.1783603
0.04989034
0.0003925383
0.0004804158
0.0005829963
0.000671574
0.0007491473
0.0008202468
0.0008859643
0.0009462056
0.001000804
0.001049595
0.001092363
0.001128877
0.00115894
0.001182435
0.001199339
0.00120973
0.001213783
0.001211755
0.001203974
0.001190817
0.001172701
0.001150061
0.001123343
0.001092992
0.001059442
0.001023119
0.0009844279
0.0009437566
0.0009014712
0.000857916
0.0008134123
0.0007682585
0.0007227295
0.0006770769
0.0006315295
0.0005862938
0.0005415545
0.0004974762
0.000454204
0.0004118655
0.0003705717
0.000330419
0.00029149
0.0002538552
0.0002175736
0.0001826942
0.0001492561
0.0001172894
8.681584e-05
5.784886e-05
3.039449e-05
4.451522e-06
-1.998788e-05
-4.293772e-05
-6.441751e-05
-8.445174e-05
-0.0001030693
-0.0001203029
-0.0001361884
-0.0001507646
-0.0001640725
-0.000176155
-0.0001870566
-0.0001968229
-0.0002055008
-0.0002131375
-0.0002197808
-0.0002254788
-0.0002302796
-0.0002342312
-0.0002373816
-0.0002397784
-0.0002414693
-0.0002425012
-0.0002429209
-0.0002427747
-0.0002421089
-0.0002409689
-0.0002393994
-0.0002374434
-0.0002351425
-0.0002325362
-0.0002296621
-0.0002265547
-0.0002232459
-0.0002197642
-0.0002161342
-0.0002123772
-0.0002085119
-0.0002045552
-0.0002005208
-0.0001964189
-0.000192256
-0.0001880349
-0.000183755
-0.0001794123
-0.0001749999
-0.0001705081
-0.0001659228
-0.0001612267
-0.0001564003
-0.0001514195
-0.0001462571
-0.0001408829
-0.0001352637
-0.0001293619
-0.0001231376
-0.0001165469
-0.0001095443
-0.0001020785
-9.409591e-05
-8.553975e-05
-7.634782e-05
-6.645294e-05
-5.577896e-05
-4.424388e-05
-3.175375e-05
-1.819907e-05
-3.456646e-06
1.261665e-05
3.019174e-05
4.94749e-05
7.072425e-05
9.424693e-05
0.0001204232
0.0001497529
0.0001828945
0.0002206756
0.0002642197
0.0003150893
0.0003754627
0.0004484697
0.0005387239
0.00065326
0.0008030946
0.001005974
0.001291395
0.001709921
0.002350624
0.003374997
0.00508302
0.008043651
0.01335011
0.0230971
0.04124266
0.0750288
0.1337763
0.2515499
0.2435162
0.05505108
0.0005740352
0.0006818431
0.0008141855
0.0009356057
0.001048461
0.001157766
0.001264285
0.001367243
0.001465859
0.001559446
0.001647313
0.001728789
0.001803283
0.001870336
0.001929632
0.001981003
0.002024413
0.002059945
0.002087784
0.002108189
0.002121481
0.002128024
0.002128208
0.002122443
0.002111145
0.002094737
0.002073635
0.002048256
0.002019003
0.001986272
0.001950446
0.00191189
0.001870957
0.001827977
0.001783266
0.001737116
0.001689804
0.001641584
0.001592693
0.00154335
0.001493756
0.001444098
0.001394547
0.00134526
0.001296383
0.001248047
0.001200372
0.001153468
0.001107432
0.001062349
0.001018297
0.0009753403
0.0009335346
0.0008929264
0.0008535533
0.0008154451
0.0007786239
0.0007431052
0.0007088986
0.0006760078
0.0006444317
0.0006141644
0.0005851959
0.0005575126
0.0005310971
0.0005059293
0.000481986
0.0004592417
0.0004376684
0.0004172362
0.0003979131
0.0003796651
0.0003624566
0.0003462499
0.0003310061
0.0003166847
0.000303243
0.0002906371
0.0002788226
0.0002677559
0.0002573938
0.0002476938
0.0002386151
0.0002301188
0.0002221688
0.0002147332
0.0002077843
0.0002012969
0.0001952477
0.0001896157
0.0001843822
0.0001795333
0.0001750594
0.0001709562
0.0001672233
0.0001638633
0.000160883
0.0001582955
0.0001561191
0.000154376
0.000153095
0.0001523103
0.0001520596
0.0001523862
0.0001533383
0.0001549701
0.0001573425
0.00016052
0.0001645705
0.0001695716
0.0001756059
0.0001827612
0.0001911332
0.0002008301
0.0002119685
0.0002246805
0.0002391134
0.0002554382
0.0002738511
0.000294578
0.0003178859
0.0003440941
0.0003735863
0.0004068367
0.0004444346
0.0004871202
0.0005358413
0.000591847
0.0006567787
0.000732864
0.0008232187
0.0009322806
0.001066545
0.001235765
0.001455079
0.001748651
0.002156215
0.002744975
0.003631853
0.005025435
0.007306672
0.01118419
0.0179916
0.03023493
0.05258467
0.09328885
0.163411
0.2792061
0.2684256
0.07885577
0.0007481799
0.0008812795
0.001040765
0.001183205
0.001311514
0.001431824
0.00154523
0.001650984
0.001748326
0.001836617
0.00191523
0.001983576
0.00204119
0.002087783
0.002123261
0.002147719
0.002161423
0.00216478
0.002158314
0.002142632
0.002118401
0.002086318
0.002047096
0.002001447
0.001950071
0.001893649
0.001832839
0.001768273
0.001700551
0.001630243
0.001557884
0.001483976
0.001408984
0.001333339
0.001257436
0.001181633
0.001106255
0.001031594
0.0009579113
0.0008854402
0.0008143866
0.0007449327
0.0006772386
0.0006114445
0.0005476718
0.0004860245
0.0004265906
0.0003694424
0.0003146374
0.0002622189
0.0002122168
0.000164648
0.0001195173
7.681878e-05
3.653603e-05
-1.356301e-06
-3.689163e-05
-7.011059e-05
-0.00010106
-0.0001297922
-0.000156364
-0.0001808364
-0.000203274
-0.0002237441
-0.0002423166
-0.0002590632
-0.0002740573
-0.0002873734
-0.000299087
-0.0003092741
-0.0003180114
-0.0003253763
-0.0003314466
-0.0003363006
-0.0003400166
-0.0003426738
-0.0003443517
-0.00034513
-0.0003450869
-0.0003442979
-0.0003428349
-0.000340767
-0.0003381605
-0.0003350769
-0.0003315708
-0.0003276892
-0.0003234723
-0.0003189558
-0.0003141725
-0.0003091533
-0.0003039256
-0.0002985058
-0.0002929017
-0.0002871173
-0.0002811538
-0.00027501
-0.0002686793
-0.0002621478
-0.0002553941
-0.0002483903
-0.0002411011
-0.0002334863
-0.0002254987
-0.0002170846
-0.0002081848
-0.0001987347
-0.0001886616
-0.0001778901
-0.0001663368
-0.0001539147
-0.0001405283
-0.0001260748
-0.0001104461
-9.352058e-05
-7.51693e-05
-5.524256e-05
-3.357412e-05
-9.972734e-06
1.578266e-05
4.394925e-05
7.482854e-05
0.0001087843
0.0001462604
0.0001878022
0.0002340993
0.0002860182
0.0003446741
0.0004115424
0.00048856
0.0005783619
0.0006846428
0.000812651
0.0009700378
0.001168275
0.001425061
0.00176845
0.002244171
0.002928732
0.003953463
0.005549048
0.008128979
0.01244578
0.01988028
0.03294762
0.05617967
0.09716833
0.1655011
0.268273
0.2520775
0.0929599
0.0009182422
0.001078267
0.001267113
0.001434052
0.001584148
0.001725464
0.001859671
0.001986088
0.0021039
0.002212352
0.002310655
0.002398043
0.002473895
0.002537796
0.002589569
0.002629256
0.002657099
0.002673502
0.002678999
0.002674219
0.002659853
0.002636624
0.00260527
0.002566524
0.00252111
0.002469731
0.002413069
0.002351781
0.002286495
0.00221781
0.002146296
0.002072487
0.001996887
0.001919962
0.001842147
0.001763838
0.001685398
0.001607158
0.001529417
0.001452444
0.001376482
0.00130175
0.001228442
0.001156735
0.001086783
0.001018724
0.0009526767
0.0008887449
0.0008270143
0.0007675553
0.0007104224
0.0006556553
0.00060328
0.000553309
0.0005057434
0.0004605732
0.000417779
0.000377333
0.0003391997
0.0003033372
0.0002696978
0.0002382288
0.0002088729
0.0001815691
0.0001562532
0.0001328582
0.0001113149
9.155235e-05
7.349826e-05
5.707903e-05
4.221967e-05
2.884357e-05
1.687261e-05
6.227745e-06
-3.171319e-06
-1.140718e-05
-1.856431e-05
-2.472752e-05
-2.998037e-05
-3.44028e-05
-3.807073e-05
-4.105718e-05
-4.343347e-05
-4.526467e-05
-4.660667e-05
-4.750586e-05
-4.799941e-05
-4.81227e-05
-4.790858e-05
-4.739382e-05
-4.661581e-05
-4.558622e-05
-4.430229e-05
-4.275612e-05
-4.093834e-05
-3.883984e-05
-3.644249e-05
-3.371912e-05
-3.063543e-05
-2.715078e-05
-2.321821e-05
-1.878593e-05
-1.379464e-05
-8.17805e-06
-1.86334e-06
5.228873e-06
1.318523e-05
2.209976e-05
3.207449e-05
4.321479e-05
5.563892e-05
6.947109e-05
8.484645e-05
0.0001019101
0.0001208236
0.0001417686
0.0001649476
0.0001905915
0.000218971
0.0002503993
0.0002852461
0.0003239473
0.0003670283
0.0004151296
0.0004690775
0.000529914
0.0005989705
0.0006779689
0.0007691836
0.0008756895
0.001001733
0.00115331
0.001339083
0.001571894
0.001871293
0.00226787
0.002810729
0.003580734
0.004714207
0.006445922
0.009187502
0.01367011
0.02119995
0.03408385
0.05634443
0.09445405
0.1559875
0.2493441
0.2284887
0.1053338
0.001085994
0.001273539
0.001492872
0.001685016
0.001856659
0.002017393
0.002169069
0.002310766
0.002441417
0.002560036
0.002665619
0.002757233
0.002834153
0.002895942
0.002942467
0.002973879
0.002990575
0.002993148
0.002982352
0.002959048
0.002924171
0.002878689
0.002823576
0.002759799
0.002688304
0.002610008
0.002525794
0.002436512
0.002342969
0.002245934
0.00214613
0.002044236
0.001940885
0.001836662
0.001732103
0.001627697
0.001523888
0.001421072
0.001319606
0.001219808
0.001121958
0.001026308
0.0009330763
0.0008424571
0.0007546187
0.0006697065
0.0005878437
0.0005091321
0.000433653
0.0003614679
0.0002926192
0.0002271309
0.0001650105
0.0001062496
5.082593e-05
-1.295529e-06
-5.01608e-05
-9.58256e-05
-0.0001383542
-0.0001778182
-0.0002142957
-0.0002478706
-0.0002786313
-0.0003066707
-0.000332085
-0.0003549728
-0.0003754352
-0.0003935748
-0.0004094949
-0.0004233
-0.0004350958
-0.0004449903
-0.0004530931
-0.0004595146
-0.0004643666
-0.0004677644
-0.0004698262
-0.0004706692
-0.0004704071
-0.0004691469
-0.0004669903
-0.0004640347
-0.0004603783
-0.0004561049
-0.000451278
-0.0004459503
-0.0004401627
-0.0004339631
-0.0004273976
-0.0004205055
-0.0004133201
-0.0004058739
-0.0003981918
-0.0003902877
-0.0003821677
-0.000373844
-0.0003653051
-0.0003565216
-0.0003474541
-0.000338055
-0.0003282693
-0.0003180345
-0.0003072805
-0.0002959302
-0.000283899
-0.0002710933
-0.0002574134
-0.0002427511
-0.0002269912
-0.0002100111
-0.0001916772
-0.000171849
-0.000150369
-0.0001270749
-0.0001017829
-7.429028e-05
-4.437019e-05
-1.176434e-05
2.382953e-05
6.27621e-05
0.0001054495
0.0001523842
0.000204157
0.0002615061
0.0003253639
0.0003969034
0.0004776098
0.0005693847
0.0006747563
0.0007971236
0.0009411289
0.001113285
0.001322898
0.00158359
0.001915824
0.002351132
0.002939296
0.003760809
0.004948653
0.006726845
0.009478751
0.01386756
0.02104429
0.03297994
0.05298823
0.08628102
0.1381661
0.2175378
0.2065433
0.09150706
0.001252367
0.001467688
0.001718257
0.001936547
0.002130829
0.002312445
0.002483675
0.002643569
0.002790988
0.002924853
0.003044047
0.003147532
0.003234519
0.003304562
0.003357567
0.00339376
0.00341364
0.003417918
0.003407479
0.00338332
0.003346508
0.003298135
0.003239288
0.003171037
0.003094418
0.003010434
0.002920045
0.002824171
0.002723686
0.002619419
0.002512151
0.002402614
0.002291489
0.002179406
0.00206694
0.001954617
0.001842911
0.001732247
0.001623008
0.001515531
0.001410119
0.00130704
0.001206529
0.001108798
0.001014029
0.00092238
0.0008339882
0.000748966
0.0006674046
0.000589373
0.0005149196
0.0004440728
0.0003768423
0.0003132206
0.0002531847
0.0001966982
0.000143712
9.4167e-05
4.79944e-05
5.117405e-06
-3.454806e-05
-7.10923e-05
-0.0001046112
-0.0001352052
-0.0001629786
-0.0001880387
-0.000210495
-0.0002304584
-0.000248041
-0.0002633554
-0.0002765163
-0.0002876424
-0.0002968557
-0.000304279
-0.0003100387
-0.0003142691
-0.0003171085
-0.0003186919
-0.0003191454
-0.0003185865
-0.0003171315
-0.0003148936
-0.0003120124
-0.0003085998
-0.0003047179
-0.0003004004
-0.0002956757
-0.0002905749
-0.0002851226
-0.0002793354
-0.0002732301
-0.0002668451
-0.0002602162
-0.0002533631
-0.0002462854
-0.0002389637
-0.0002313754
-0.0002234936
-0.0002152827
-0.0002066954
-0.0001976731
-0.0001881445
-0.0001780291
-0.0001672359
-0.000155665
-0.0001432075
-0.000129746
-0.0001151551
-9.93008e-05
-8.20402e-05
-6.322102e-05
-4.268098e-05
-2.024346e-05
4.279873e-06
3.109464e-05
6.042991e-05
9.254446e-05
0.0001277294
0.0001663203
0.0002087135
0.0002553791
0.0003068848
0.0003639273
0.000427377
0.0004982602
0.0005778561
0.0006677843
0.000770085
0.0008874954
0.001023685
0.001183618
0.001374158
0.001604992
0.001890093
0.002250115
0.002716296
0.003337006
0.004188802
0.005395287
0.007159531
0.009819747
0.01394384
0.02048553
0.03102032
0.04807183
0.0753633
0.1152671
0.1682013
0.1743089
0.05522423
0.001417824
0.001661048
0.001943343
0.002188505
0.00240623
0.002609539
0.00280105
0.002979657
0.003143996
0.003292741
0.003424519
0.003538068
0.003632441
0.003707116
0.003762
0.003797374
0.003813833
0.003812222
0.003793586
0.003759102
0.003710025
0.003647632
0.003573196
0.00348796
0.003393136
0.003289892
0.003179352
0.003062592
0.002940635
0.002814456
0.00268497
0.002553038
0.002419461
0.002284976
0.002150261
0.002015931
0.001882538
0.00175058
0.001620499
0.001492687
0.001367494
0.001245228
0.00112616
0.001010531
0.0008985502
0.0007903976
0.0006862274
0.0005861664
0.0004903157
0.0003987508
0.0003115226
0.0002286584
0.0001501641
7.602554e-05
6.210797e-06
-5.932768e-05
-0.0001206512
-0.0001778331
-0.0002309572
-0.0002801167
-0.0003254134
-0.0003669561
-0.0004048602
-0.0004392467
-0.0004702405
-0.00049797
-0.0005225656
-0.0005441595
-0.0005628845
-0.0005788732
-0.0005922613
-0.0006031906
-0.0006118088
-0.0006182636
-0.00062271
-0.0006253216
-0.000626277
-0.0006257431
-0.0006238683
-0.0006207681
-0.0006165626
-0.0006113697
-0.0006052914
-0.0005984521
-0.0005910122
-0.0005830608
-0.000574658
-0.0005658507
-0.0005566798
-0.0005471802
-0.0005373843
-0.0005273268
-0.0005170373
-0.0005065306
-0.0004958007
-0.0004848115
-0.0004735358
-0.0004619496
-0.0004500203
-0.0004377024
-0.0004249345
-0.0004116402
-0.0003977312
-0.0003831059
-0.0003676515
-0.0003512468
-0.0003337597
-0.0003150484
-0.0002949626
-0.000273344
-0.0002500224
-0.0002248159
-0.0001975323
-0.0001679599
-0.0001358724
-0.0001010202
-6.311939e-05
-2.184827e-05
2.315876e-05
7.233102e-05
0.0001261818
0.000185334
0.0002505463
0.0003227523
0.00040306
0.0004928515
0.0005938683
0.0007083222
0.0008391502
0.0009902036
0.001166675
0.001375633
0.001626907
0.001934479
0.002318623
0.002809394
0.003452322
0.004317763
0.005516418
0.007225117
0.0097294
0.01349245
0.01926182
0.02821574
0.042116
0.06323913
0.0918614
0.1228764
0.1248392
0.02852188
0.001582504
0.001853689
0.00216805
0.00244069
0.002682645
0.002908586
0.003121475
0.003320061
0.003502764
0.003668029
0.003814247
0.003939962
0.004044112
0.00412615
0.004186028
0.004224121
0.004241149
0.004238108
0.004216217
0.004176839
0.004121415
0.004051395
0.003968212
0.003873261
0.003767892
0.003653404
0.003531044
0.003402002
0.00326741
0.00312834
0.002985801
0.002840738
0.002694029
0.002546482
0.002398832
0.002251749
0.00210583
0.001961609
0.001819562
0.001680108
0.001543619
0.001410421
0.001280803
0.001155022
0.001033299
0.0009158264
0.0008027685
0.0006942601
0.0005904081
0.0004912916
0.0003969629
0.0003074484
0.0002227512
0.0001428524
6.771452e-05
-2.717062e-06
-6.851142e-05
-0.0001297505
-0.0001865275
-0.0002389459
-0.0002871185
-0.0003311667
-0.0003712189
-0.0004074097
-0.0004398778
-0.0004687652
-0.0004942156
-0.000516375
-0.0005353891
-0.000551402
-0.0005645629
-0.0005750312
-0.0005829738
-0.0005885582
-0.0005919657
-0.00059342
-0.0005931499
-0.0005913574
-0.0005882669
-0.0005840282
-0.0005787258
-0.0005724439
-0.0005652325
-0.0005571661
-0.0005483645
-0.0005389715
-0.0005291106
-0.000518872
-0.00050832
-0.000497503
-0.0004864584
-0.0004752165
-0.0004638
-0.0004522205
-0.0004404737
-0.0004285381
-0.0004163857
-0.0004039808
-0.0003912757
-0.0003782085
-0.0003647021
-0.0003506651
-0.0003359934
-0.0003205688
-0.0003042625
-0.0002869347
-0.0002684341
-0.0002486006
-0.0002272646
-0.0002042457
-0.0001793541
-0.0001523874
-0.0001231314
-9.135237e-05
-5.679819e-05
-1.919809e-05
2.175518e-05
6.641449e-05
0.0001151797
0.0001685122
0.0002269621
0.0002911935
0.0003620093
0.0004403854
0.0005275214
0.0006249155
0.0007344879
0.0008587429
0.001000752
0.001164408
0.00135495
0.001579546
0.001848034
0.00217416
0.002577448
0.003086219
0.00374236
0.004608917
0.005782302
0.007411776
0.009730137
0.01310046
0.01808226
0.02550851
0.0365244
0.05234644
0.07234622
0.09076917
0.0903667
0.0332933
0.001746296
0.002045438
0.002392088
0.002692695
0.002959591
0.003209056
0.003444372
0.003664103
0.003866395
0.004049391
0.004211167
0.004349995
0.004464637
0.00455447
0.004619453
0.004660011
0.004676948
0.004671381
0.004644682
0.004598394
0.004534135
0.004453534
0.004358191
0.004249661
0.004129455
0.003999025
0.003859768
0.00371302
0.003560052
0.003402069
0.00324021
0.003075539
0.002909044
0.002741637
0.00257415
0.002407334
0.002241862
0.002078336
0.001917287
0.001759185
0.001604447
0.001453439
0.001306487
0.001163877
0.001025861
0.0008926556
0.0007644482
0.0006413925
0.0005236108
0.0004111938
0.0003042018
0.0002026659
0.0001065907
1.59567e-05
-6.927658e-05
-0.0001491682
-0.0002237931
-0.0002932405
-0.000357612
-0.0004170212
-0.0004715924
-0.0005214604
-0.0005667683
-0.0006076665
-0.000644309
-0.0006768523
-0.0007054536
-0.0007302742
-0.0007514738
-0.000769208
-0.0007836387
-0.0007949452
-0.0008033267
-0.0008089798
-0.0008121062
-0.0008129932
-0.000811924
-0.0008090919
-0.0008047204
-0.0007989445
-0.0007919056
-0.0007837466
-0.0007745851
-0.0007645129
-0.0007536076
-0.0007420197
-0.000729898
-0.0007173581
-0.0007044826
-0.0006913319
-0.0006779518
-0.0006643771
-0.0006506319
-0.0006367281
-0.0006226638
-0.0006084212
-0.0005939685
-0.0005792611
-0.0005642412
-0.0005488359
-0.0005329574
-0.0005165045
-0.0004993619
-0.0004813993
-0.0004624742
-0.0004424328
-0.0004211075
-0.0003983208
-0.000373886
-0.0003476037
-0.0003192662
-0.0002886517
-0.0002555255
-0.000219637
-0.0001807115
-0.0001384549
-9.253841e-05
-4.258593e-05
1.183081e-05
7.120753e-05
0.000136129
0.0002072968
0.0002855584
0.0003719464
0.0004677371
0.0005745119
0.0006942953
0.0008297098
0.0009839365
0.001161027
0.00136633
0.001606973
0.001892722
0.002236985
0.002658382
0.003183304
0.003849804
0.004713574
0.005857184
0.007404161
0.009539944
0.01254139
0.01681359
0.02292166
0.03157538
0.04337181
0.05759031
0.07003591
0.07176625
0.04491274
0.001908882
0.002235898
0.002614943
0.002943897
0.003236365
0.00351021
0.003769018
0.004011145
0.004234432
0.00443667
0.004615575
0.004769112
0.004895851
0.004995095
0.005066815
0.005111492
0.005130012
0.005123619
0.005093856
0.005042461
0.004971252
0.004882046
0.004776621
0.004656707
0.004523979
0.004380054
0.004226483
0.004064748
0.00389626
0.003722355
0.00354429
0.003363245
0.00318031
0.002996492
0.002812702
0.002629765
0.002448417
0.002269309
0.002093018
0.001920051
0.001750855
0.001585825
0.001425309
0.001269613
0.00111901
0.0009737336
0.0008339849
0.0006999302
0.0005717008
0.0004493939
0.0003330727
0.0002227689
0.0001184851
2.01983e-05
-7.2137e-05
-0.0001585858
-0.0002392297
-0.0003141653
-0.0003835027
-0.0004473654
-0.0005058895
-0.0005592229
-0.0006075244
-0.0006509599
-0.0006896979
-0.0007239074
-0.0007537563
-0.0007794176
-0.0008010563
-0.0008188362
-0.0008329329
-0.0008435476
-0.0008509359
-0.0008553151
-0.000856997
-0.000856369
-0.0008537984
-0.0008493921
-0.0008431232
-0.0008351314
-0.0008256898
-0.0008150435
-0.0008033749
-0.000790825
-0.0007775193
-0.0007635973
-0.0007491914
-0.0007344144
-0.0007193541
-0.0007040778
-0.0006886375
-0.0006730722
-0.0006574066
-0.0006416517
-0.000625804
-0.0006098437
-0.0005937344
-0.000577424
-0.0005608462
-0.0005439179
-0.0005265391
-0.000508595
-0.0004899558
-0.0004704759
-0.0004499937
-0.0004283358
-0.0004053164
-0.0003807359
-0.0003543845
-0.0003260439
-0.0002954839
-0.0002624599
-0.0002267164
-0.000187982
-0.0001459601
-0.0001003334
-5.074949e-05
3.191725e-06
6.194145e-05
0.0001260262
0.0001960677
0.0002728031
0.0003571187
0.000450098
0.000553079
0.0006677098
0.0007960738
0.0009408237
0.001105317
0.001293949
0.001512286
0.001767205
0.002068241
0.002428417
0.002865482
0.003404013
0.004078518
0.004938072
0.006053138
0.007525432
0.009501578
0.01219051
0.01588146
0.02095055
0.02782491
0.03678697
0.04729927
0.05675622
0.0606306
0.05034012
0.002069762
0.002424471
0.002835887
0.003193444
0.003512013
0.003811023
0.004094358
0.004360153
0.004605904
0.004829
0.005026727
0.00519668
0.005337184
0.005447433
0.00552737
0.005577485
0.005598699
0.005592346
0.005560117
0.00550394
0.005425823
0.005327769
0.005211736
0.005079632
0.00493331
0.004774558
0.004605094
0.004426558
0.004240513
0.004048437
0.003851726
0.003651684
0.003449523
0.003246357
0.003043198
0.002840957
0.002640446
0.002442384
0.002247405
0.002056066
0.001868856
0.001686208
0.001508505
0.001336087
0.001169254
0.001008267
0.0008533522
0.0007046959
0.0005624473
0.0004267165
0.0002975764
0.0001750649
5.918816e-05
-5.00754e-05
-0.0001527714
-0.0002489662
-0.0003387435
-0.0004222031
-0.0004994598
-0.0005706437
-0.0006359002
-0.0006953897
-0.0007492852
-0.0007977682
-0.0008410196
-0.0008792145
-0.0009125231
-0.0009411216
-0.0009651872
-0.0009848928
-0.001000418
-0.001011956
-0.001019845
-0.001024431
-0.001026092
-0.001025228
-0.001022021
-0.001016633
-0.001009132
-0.0009997647
-0.0009888442
-0.0009766369
-0.0009633475
-0.0009491403
-0.0009341594
-0.0009185418
-0.000902415
-0.0008858933
-0.0008690737
-0.0008520344
-0.0008348368
-0.0008175268
-0.0008001338
-0.000782671
-0.0007651354
-0.0007475071
-0.0007297463
-0.0007117959
-0.0006935813
-0.0006750111
-0.0006559742
-0.0006363424
-0.0006159708
-0.0005946978
-0.0005723443
-0.0005487174
-0.0005236111
-0.0004968055
-0.0004680699
-0.0004371647
-0.0004038376
-0.0003678247
-0.0003288504
-0.0002866216
-0.000240823
-0.0001911165
-0.000137129
-7.84379e-05
-1.456871e-05
5.502913e-05
0.0001310085
0.000214143
0.0003053587
0.0004057841
0.0005168095
0.0006401526
0.0007779677
0.0009329713
0.001108634
0.001309472
0.001541166
0.001810762
0.00212755
0.002504128
0.002957565
0.003510994
0.004196058
0.005056529
0.006153337
0.007571383
0.009428191
0.01188349
0.01514613
0.0194684
0.02510544
0.03219175
0.04037974
0.04811241
0.05286164
0.04998344
0.002228282
0.002610382
0.00305399
0.003440258
0.003785327
0.004110187
0.004419024
0.00470975
0.004979503
0.00522522
0.005443698
0.005632094
0.005788429
0.005911748
0.00600193
0.006059421
0.00608513
0.006080447
0.006047204
0.005987518
0.005903601
0.005797655
0.005671837
0.005528261
0.005368985
0.005195993
0.00501119
0.004816394
0.004613333
0.004403643
0.004188865
0.00397044
0.003749707
0.003527895
0.003306119
0.003085382
0.002866573
0.002650478
0.002437785
0.002229098
0.002024947
0.001825797
0.001632063
0.001444112
0.001262268
0.001086818
0.0009180054
0.0007560365
0.0006010735
0.0004532368
0.0003126051
0.0001792193
5.308632e-05
-6.581643e-05
-0.0001775367
-0.0002821435
-0.0003797239
-0.000470381
-0.000554235
-0.0006314239
-0.0007021045
-0.0007664523
-0.000824658
-0.0008769181
-0.000923418
-0.0009643259
-0.0009998194
-0.001030093
-0.001055337
-0.00107571
-0.001091374
-0.001102669
-0.001109984
-0.001113708
-0.001114365
-0.001112121
-0.001107008
-0.001099372
-0.001089554
-0.001077863
-0.001064583
-0.001049963
-0.001034217
-0.001017532
-0.001000074
-0.0009819929
-0.0009634255
-0.0009444937
-0.000925303
-0.0009059406
-0.0008864755
-0.000866959
-0.0008474248
-0.0008278874
-0.0008083438
-0.0007887726
-0.000769131
-0.0007493568
-0.0007293673
-0.0007090601
-0.0006883126
-0.0006669823
-0.0006449081
-0.0006219099
-0.0005977896
-0.0005723335
-0.0005453124
-0.0005164842
-0.0004855955
-0.0004523828
-0.0004165697
-0.0003778719
-0.0003359916
-0.0002906127
-0.0002414023
-0.0001880015
-0.0001300156
-6.700453e-05
1.53013e-06
7.616295e-05
0.0001575717
0.0002465605
0.0003440956
0.0004513476
0.0005697536
0.0007010966
0.0008475901
0.001012021
0.001197937
0.001409875
0.001653674
0.001936951
0.002268772
0.002661365
0.003131278
0.003700703
0.004399382
0.00526748
0.006359445
0.00774887
0.009534092
0.01184324
0.01483529
0.0186893
0.02356637
0.02951809
0.0362973
0.04296331
0.04788773
0.04819299
0.002383666
0.002792712
0.003268153
0.003683067
0.004054872
0.004406118
0.004741319
0.005058187
0.0053535
0.005623721
0.005865096
0.006074262
0.006248857
0.006387702
0.006490538
0.006557685
0.006589962
0.006588765
0.006556044
0.006494098
0.006405341
0.006292181
0.006156992
0.006002112
0.005829822
0.005642324
0.005441724
0.00523003
0.005009149
0.004780886
0.004546937
0.004308896
0.004068238
0.003826323
0.00358438
0.003343515
0.003104705
0.002868812
0.002636587
0.002408686
0.002185685
0.00196809
0.001756349
0.001550863
0.001351986
0.001160033
0.0009752724
0.0007979322
0.0006281926
0.0004661871
0.0003120039
0.0001656892
2.725359e-05
-0.0001033235
-0.0002260892
-0.0003411122
-0.0004484788
-0.0005482928
-0.0006406767
-0.0007257756
-0.0008037574
-0.0008748104
-0.0009391384
-0.0009969475
-0.001048408
-0.00109369
-0.001132994
-0.001166535
-0.001194491
-0.001216934
-0.001234177
-0.001246639
-0.001254717
-0.001258787
-0.001259366
-0.001256538
-0.00125055
-0.001241862
-0.001230879
-0.001217923
-0.001203272
-0.001187182
-0.001169889
-0.001151602
-0.001132509
-0.001112774
-0.001092546
-0.001071955
-0.001051115
-0.001030119
-0.001009045
-0.0009879513
-0.0009668763
-0.0009458365
-0.0009248295
-0.0009038333
-0.0008828039
-0.0008616758
-0.0008403582
-0.0008187375
-0.0007966793
-0.0007740266
-0.0007506012
-0.0007262043
-0.0007006178
-0.0006736045
-0.0006449122
-0.0006142748
-0.0005814141
-0.0005460412
-0.0005078559
-0.0004665509
-0.0004218063
-0.0003732857
-0.0003206357
-0.000263478
-0.0002014007
-0.000133947
-6.059747e-05
1.924412e-05
0.0001062771
0.0002013332
0.000305415
0.0004197333
0.0005457746
0.0006853813
0.0008408317
0.001014996
0.001211512
0.001435011
0.001691466
0.001988688
0.002336137
0.002745886
0.003234265
0.003823062
0.004541286
0.005427425
0.006532723
0.007925101
0.009693242
0.01194954
0.01482865
0.01847507
0.02300788
0.02844462
0.03456789
0.04071918
0.04569214
0.04743562
0.002535047
0.002970436
0.003477146
0.003920437
0.004319012
0.004696989
0.005059246
0.005403348
0.005725746
0.006022433
0.006289064
0.00652167
0.006717401
0.006874748
0.006993203
0.007072845
0.00711429
0.007118861
0.00708859
0.007025955
0.00693359
0.006814143
0.006670246
0.006504508
0.006319473
0.006117587
0.005901184
0.00567248
0.005433579
0.005186469
0.004933021
0.004674993
0.004414017
0.004151596
0.003889091
0.003627718
0.003368556
0.003112546
0.002860508
0.002613155
0.002371106
0.002134907
0.001905041
0.001681939
0.001465985
0.001257519
0.001056835
0.0008641809
0.0006797527
0.0005036951
0.0003361026
0.0001770246
2.647289e-05
-0.0001155731
-0.0002491613
-0.000374362
-0.0004912622
-0.0005999662
-0.0007006002
-0.0007933164
-0.0008782909
-0.0009557212
-0.001025821
-0.001088798
-0.001144813
-0.001194051
-0.001236743
-0.001273116
-0.001303318
-0.001327409
-0.001345797
-0.001358942
-0.001367245
-0.001371057
-0.001370737
-0.001366589
-0.001359091
-0.00134873
-0.001335913
-0.001320984
-0.001304248
-0.001285988
-0.00126646
-0.001245895
-0.001224497
-0.001202448
-0.001179909
-0.001157021
-0.00113391
-0.00111068
-0.001087418
-0.00106419
-0.001041039
-0.001017988
-0.0009950365
-0.0009721632
-0.0009493228
-0.0009264435
-0.000903428
-0.0008801541
-0.0008564751
-0.0008322195
-0.0008071909
-0.0007811699
-0.0007539161
-0.0007251679
-0.0006946469
-0.0006620616
-0.0006271064
-0.0005894653
-0.0005488141
-0.0005048198
-0.0004571389
-0.0004054158
-0.0003492785
-0.0002883292
-0.0002221379
-0.0001502343
-7.208347e-05
1.293373e-05
0.0001055316
0.0002065664
0.0003170728
0.0004383002
0.0005717814
0.0007194122
0.0008835464
0.001067143
0.001273934
0.001508678
0.001777489
0.002088294
0.00245138
0.002878953
0.003387505
0.003999114
0.00474316
0.005658523
0.006796662
0.008225481
0.01003328
0.01233152
0.01525318
0.0189404
0.02350976
0.02897878
0.03513767
0.04137432
0.04656853
0.04882107
0.002681513
0.003142469
0.003679665
0.004150839
0.004575982
0.004980787
0.005370559
0.005742789
0.006093678
0.00641879
0.006713184
0.006972208
0.007192381
0.007371702
0.007509272
0.007604801
0.007658583
0.00767176
0.00764637
0.00758504
0.007490631
0.007366061
0.007214271
0.007038191
0.006840671
0.006624435
0.006392064
0.006146005
0.005888573
0.005621957
0.005348218
0.005069297
0.004787003
0.004503001
0.004218799
0.003935746
0.003655029
0.003377683
0.003104605
0.002836566
0.002574236
0.002318199
0.002068974
0.001827022