/*--------------------------------*- C++ -*----------------------------------*\
| =========                 |                                                 |
| \\      /  F ield         | OpenFOAM: The Open Source CFD Toolbox           |
|  \\    /   O peration     | Version:  2106                                  |
|   \\  /    A nd           | Website:  www.openfoam.com                      |
|    \\/     M anipulation  |                                                 |
\*---------------------------------------------------------------------------*/
FoamFile
{
    version     2.0;
    format      ascii;
    arch        "LSB;label=32;scalar=64";
    class       volScalarField;
    location    "40";
    object      p;
}
// * * * * * * * * * * * * * * * * * * * * * * * * * * * * * * * * * * * * * //

dimensions      [ 0 2 -2 0 0 0 0 ];

internalField   nonuniform List<scalar> 
300000
(
0.0002060871
0.0003174922
0.0004403353
0.0005406389
0.0006454441
0.0007561223
0.0008662435
0.0009753564
0.001084008
0.001191751
0.001297288
0.001400611
0.00150173
0.00160052
0.001696254
0.001789005
0.001878276
0.001964314
0.00204682
0.002126218
0.002202963
0.002278523
0.002352124
0.002422646
0.002489725
0.002558883
0.002632937
0.00270701
0.002782599
0.002860985
0.002934598
0.003018554
0.003119958
0.003222967
0.003334508
0.003441261
0.003562262
0.003722234
0.003862919
0.004026341
0.004203963
0.004433266
0.004675192
0.00496219
0.005221533
0.005564433
0.005937331
0.006376404
0.006809778
0.007261327
0.007895424
0.008441869
0.009115463
0.009837806
0.01062602
0.01146136
0.01236523
0.01328311
0.0142997
0.0150816
0.0159736
0.01671793
0.01742529
0.01787224
0.01831292
0.01851864
0.01859251
0.01839159
0.01819405
0.01758888
0.01702429
0.01625743
0.01548332
0.01470781
0.01385456
0.01322039
0.01237884
0.01169046
0.01075544
0.01067414
0.01001578
0.008943379
0.009117791
0.009338277
0.009665603
0.00936943
0.01037419
0.01030426
0.009922525
0.008268192
0.008041778
0.007287172
0.00671879
0.006228375
0.007722061
0.007113272
0.005395549
0.006139971
0.005556592
0.005367626
0.003591154
0.003090539
0.003179052
0.004408534
0.005025238
0.005397515
0.004624625
0.003486191
0.001649035
-0.0004430693
-0.002110568
-0.002280548
-0.002366052
-0.00325797
-0.003189999
-0.002785655
-0.002377617
-0.001666635
-0.0006943699
0.0008503946
0.002558891
0.003390132
0.004368019
0.00443708
0.001225679
-0.005232053
-0.007672006
-0.005935954
-0.004180255
-0.002225198
0.0003358638
0.001631505
0.0001650334
-0.0006964218
-0.0009252222
-0.0002652931
-0.0001439414
-0.0004421564
0.000673587
0.00246257
0.002956149
0.00131902
-0.0001531695
-0.0005121456
-0.0006190854
-0.000750614
-0.0007811745
-0.0006680804
-0.0003389678
0.0005400468
0.0004121269
0.0005069928
0.0006068218
0.0006895735
0.0007809682
0.0008632295
0.0009261971
0.000983524
0.001042964
0.001099204
0.001147068
0.001187218
0.001222113
0.001251644
0.001274462
0.001290313
0.001300409
0.001305775
0.001307152
0.001304215
0.001297066
0.001285751
0.001270524
0.001252156
0.001232173
0.00121199
0.001190801
0.001167408
0.001142722
0.001118008
0.001094093
0.001075521
0.001060023
0.001040958
0.00102098
0.001002478
0.0009920377
0.0009879907
0.0009791759
0.0009793409
0.0009887417
0.0010072
0.001024722
0.001046807
0.001065786
0.001099703
0.001134575
0.001179924
0.001236964
0.001311209
0.001415356
0.001483717
0.00156816
0.001660789
0.001784602
0.001935999
0.002096553
0.002247835
0.002412445
0.002551263
0.002724352
0.002904616
0.003142272
0.003412601
0.003770476
0.004189994
0.004663064
0.00513948
0.005664864
0.006110661
0.006789508
0.007474935
0.008035629
0.008472048
0.008834109
0.009174629
0.009501271
0.009868289
0.01012764
0.01011696
0.009509562
0.009069198
0.009075122
0.00922802
0.009414737
0.009108032
0.008606909
0.007644256
0.006569072
0.005994936
0.006287222
0.006082507
0.0057702
0.005366602
0.005208915
0.004644604
0.004192908
0.00438199
0.005103815
0.00452949
0.003348741
0.003036226
0.003073739
0.003666136
0.004096392
0.004258264
0.003015622
0.001764235
0.0004861212
-0.0008799172
-0.0017655
-0.0020013
-0.002151625
-0.002066605
-0.00172718
-0.00125607
-0.0007617205
-3.171111e-05
0.001175267
0.002717857
0.003898068
0.004147911
0.003196996
0.0007630274
-0.003349469
-0.006050906
-0.005482263
-0.003775489
-0.003486222
-0.003395376
-0.002156052
-0.001202737
-0.0002993442
-0.0009698931
-0.001354766
-0.001210215
0.0002111177
0.0004098197
0.0002488148
0.0006353436
0.001216975
0.001077704
0.0006095876
0.0003440209
0.0001515264
2.232202e-05
2.226937e-05
0.0001490115
0.0004075149
0.0009413938
0.0006018282
0.0007257675
0.0008673564
0.0009908609
0.001120047
0.001240418
0.001345811
0.001451809
0.001564037
0.001673732
0.001774611
0.001868529
0.001958254
0.002042982
0.002120632
0.002190334
0.002253848
0.002312993
0.002368213
0.002418742
0.002463911
0.002504065
0.002540609
0.002574929
0.002607491
0.00263826
0.002668804
0.002701071
0.002735422
0.00277229
0.002811976
0.00285447
0.002902079
0.002956599
0.003017587
0.003086123
0.003161471
0.003246473
0.003344267
0.00345155
0.003572597
0.003707792
0.003861482
0.004032835
0.004223564
0.004429281
0.004656979
0.004907509
0.00518621
0.005486188
0.00580886
0.006149111
0.006491365
0.00685057
0.007244068
0.007671126
0.008105289
0.00853076
0.008956037
0.009384599
0.009801927
0.01021265
0.01063685
0.01106662
0.01150987
0.01197939
0.01245551
0.01291376
0.0133672
0.01366607
0.01415559
0.01458219
0.01483498
0.01494436
0.01498339
0.01502397
0.01511984
0.015209
0.01493866
0.01448874
0.01358527
0.0127382
0.01244718
0.01231291
0.01213431
0.01167251
0.01065043
0.009431298
0.008153163
0.007664431
0.007427118
0.007129763
0.006939725
0.006539123
0.006190159
0.0054945
0.00536921
0.005422949
0.005968628
0.006472061
0.004664584
0.003591692
0.003195439
0.004082491
0.004907155
0.005288737
0.004357101
0.00298312
0.001816321
0.0004479363
-0.0003871196
-0.0008573057
-0.001467289
-0.001572648
-0.001355334
-0.0007447701
-0.0003357533
0.0001384006
0.001262157
0.00252295
0.003118891
0.003365645
0.002302159
-0.0003946733
-0.003558391
-0.005290378
-0.004653327
-0.003298831
-0.003139663
-0.003298931
-0.002269431
-0.001639548
0.0002604204
-8.033141e-05
-0.0004351851
-0.0002653244
0.0004041442
0.0006302083
0.0003679569
0.0003084194
0.0005918413
0.0007760988
0.0006253457
0.00034479
7.962628e-05
-0.0001023997
-0.0001618418
-9.562587e-05
9.028483e-05
0.0005182256
0.0007814095
0.000929325
0.001089025
0.00122354
0.001364825
0.001498975
0.001614392
0.001721802
0.001827189
0.001925221
0.002011754
0.002088571
0.00215751
0.002216575
0.002263702
0.002298829
0.00232378
0.002341388
0.002352986
0.002357877
0.002355447
0.002345705
0.002329399
0.002308394
0.002284532
0.002259034
0.002232463
0.002205556
0.002178692
0.002151876
0.002125483
0.002100648
0.002080245
0.002064999
0.002053569
0.00204628
0.002043801
0.002049045
0.00206361
0.002086482
0.002120975
0.002169174
0.00223113
0.00230565
0.002394917
0.002499862
0.002623767
0.002765505
0.002929096
0.003114001
0.003327665
0.003582388
0.003862133
0.004160777
0.004496607
0.004889873
0.005331289
0.005802535
0.006305158
0.006859652
0.007458748
0.008089811
0.008768383
0.009491628
0.01025643
0.01106745
0.01190623
0.01273071
0.01352236
0.01418057
0.01486738
0.01553151
0.01601827
0.01632231
0.01647544
0.01659842
0.01673607
0.01682668
0.01650549
0.01604101
0.01514819
0.01417125
0.01375034
0.01348767
0.01325146
0.01268542
0.01149529
0.01015786
0.008824324
0.008022464
0.007802451
0.007284348
0.006961383
0.006593924
0.006276545
0.005630824
0.005449015
0.005477742
0.00678466
0.006516043
0.005588415
0.004280179
0.003872163
0.004490441
0.005789734
0.005433341
0.006035975
0.004179522
0.002947369
0.001258328
0.0003805183
0.0007701218
-0.0002842014
-0.0004131118
-0.0001346763
0.0005380395
0.0009895371
0.0008813587
0.001559496
0.002773646
0.003088591
0.002772465
0.001344062
-0.0008564394
-0.003504805
-0.004924437
-0.00463642
-0.003581379
-0.003215647
-0.002494559
-0.001105408
-0.0004622731
-1.153989e-05
0.0007358035
0.0008918766
0.0008061605
0.0005866506
0.0006076201
0.0005709763
0.0003467921
0.0002306574
0.0003061732
0.0002529044
7.860846e-05
-0.0001114909
-0.0002293853
-0.0002332057
-0.0001340018
7.112684e-05
0.0005099094
0.0009572904
0.001135379
0.00132858
0.001494272
0.001665535
0.001826474
0.001964979
0.002093251
0.002220006
0.002341976
0.002454754
0.00255799
0.002652326
0.002735494
0.002805416
0.002863349
0.002911514
0.002952113
0.002986913
0.003015506
0.003036391
0.003049652
0.003056093
0.003057064
0.003055535
0.003053897
0.003052121
0.003049859
0.003047959
0.003047819
0.003050028
0.003054949
0.00306429
0.003079921
0.003102161
0.00313121
0.003167665
0.003213107
0.003268858
0.003335504
0.00341454
0.003507863
0.003615723
0.003736769
0.003872455
0.004025763
0.004199601
0.004392141
0.004604788
0.004838886
0.005088753
0.005363899
0.005680863
0.006019131
0.006370783
0.006761095
0.00719898
0.007670624
0.008159579
0.008687576
0.009282777
0.009909564
0.01056908
0.01127874
0.01203049
0.01282023
0.0136387
0.01444794
0.01524935
0.01601412
0.01668669
0.01721461
0.01767033
0.01800847
0.01813847
0.01820406
0.01827892
0.01831381
0.01799266
0.017467
0.01651826
0.01542963
0.01477468
0.01449242
0.01421016
0.01359444
0.0123022
0.01090671
0.009400903
0.008385737
0.007961435
0.007237118
0.007215977
0.006586049
0.006069322
0.005750462
0.005787794
0.005748398
0.007343063
0.007372304
0.005596889
0.004766649
0.004116456
0.004801271
0.005774196
0.005899992
0.006655851
0.004994997
0.004916127
0.002670605
0.001792041
0.001084079
0.0007197339
0.0006149652
0.0009150804
0.001644936
0.002375424
0.002403462
0.002613447
0.00288765
0.002684829
0.002083316
0.0007421406
-0.001331781
-0.003584715
-0.004603372
-0.004767594
-0.004655529
-0.004182485
-0.003092487
-0.00222558
-0.000792694
0.001247667
0.00216371
0.002137475
0.001142005
0.0005958145
-0.0001604759
-0.0003521897
-0.0002610545
-0.0001734686
-4.247474e-05
-8.522659e-05
-0.0002433317
-0.0003917505
-0.0004605231
-0.0004421875
-0.0003376964
-0.0001325403
0.0002957328
0.001130176
0.001337324
0.001560632
0.001747764
0.001935094
0.002110533
0.002264073
0.002407279
0.002547055
0.002678956
0.002797999
0.002903303
0.002995457
0.003073193
0.003134391
0.003180389
0.003214311
0.00323782
0.003251956
0.00325736
0.003252915
0.003238346
0.003215426
0.003185462
0.003150431
0.003113948
0.003077585
0.003040429
0.003002552
0.002965036
0.002929602
0.002896839
0.002866976
0.002841699
0.002823286
0.002812775
0.002810111
0.00281566
0.00283112
0.002858358
0.002898534
0.002952995
0.003024405
0.003111782
0.00321488
0.003337185
0.003483674
0.003655007
0.003849379
0.004070209
0.004317275
0.004584796
0.004891056
0.005255134
0.005648089
0.006071565
0.006550991
0.007087921
0.007650813
0.008249911
0.008942642
0.00968197
0.01045506
0.01126889
0.01213276
0.01302853
0.01394377
0.01484498
0.01571813
0.01653536
0.01734748
0.01800003
0.01847815
0.0187682
0.01902225
0.01907016
0.01911559
0.01915228
0.01899621
0.01837218
0.01746261
0.01630454
0.01559606
0.01514332
0.01492565
0.01438172
0.01315406
0.01162761
0.0100351
0.008870315
0.008367348
0.007557394
0.0076584
0.006788356
0.005973346
0.005516858
0.005467111
0.005626977
0.006298834
0.006374279
0.005371921
0.004783948
0.00363539
0.004821005
0.005658051
0.006474456
0.00732417
0.005719993
0.005251314
0.002934975
0.002632815
0.001238025
0.001665356
0.001282792
0.001637482
0.002357627
0.003278601
0.003380373
0.003519426
0.003261634
0.002598897
0.001870699
0.0008916424
-0.001213465
-0.003101617
-0.003823608
-0.004350009
-0.004702393
-0.004363152
-0.004070107
-0.003140866
-0.001222534
0.001472958
0.002612264
0.001925036
0.0003262048
-0.0002755489
-0.001165707
-0.001388722
-0.0007671363
-0.0001938427
-8.224374e-06
-0.0001577348
-0.0003520308
-0.0004975439
-0.0005655385
-0.0005514885
-0.0004476616
-0.0002457626
0.0001645846
0.001301481
0.001538306
0.001794422
0.002008779
0.002221382
0.002422725
0.002602169
0.002768971
0.002928736
0.003077731
0.003212344
0.003332469
0.003438421
0.00352908
0.003602304
0.003658494
0.003701329
0.003733245
0.003754508
0.003765761
0.003767304
0.003758509
0.003740922
0.003717019
0.00368776
0.003655616
0.003624121
0.003593504
0.003562674
0.003532076
0.003502879
0.003477418
0.003456187
0.003439193
0.003428258
0.003426042
0.003433872
0.003451186
0.003477994
0.003515968
0.003567901
0.003634148
0.003715178
0.003813929
0.003928126
0.004058422
0.004210315
0.004388295
0.004589271
0.004812315
0.005062574
0.005334217
0.005627478
0.005971535
0.006368347
0.006790664
0.007251938
0.007775803
0.008330033
0.008914539
0.009589609
0.01031383
0.01109775
0.01190267
0.01276236
0.0136592
0.01457597
0.01548738
0.01638014
0.01713591
0.01793547
0.01872383
0.01924037
0.01951721
0.01972823
0.01978843
0.01983195
0.01990994
0.01959348
0.01907247
0.01833391
0.01714722
0.01632789
0.01586854
0.0154616
0.01492793
0.01386891
0.01226817
0.01052276
0.009484137
0.009050026
0.008332341
0.00802676
0.007460905
0.006649034
0.006037803
0.006004613
0.00616469
0.005936373
0.006231955
0.004213005
0.004314026
0.004060138
0.004384881
0.005265565
0.005864012
0.007781527
0.007514428
0.006426716
0.004259596
0.002915994
0.002191492
0.002144045
0.002188905
0.002598243
0.003302802
0.003983545
0.004622011
0.00436855
0.003896434
0.002960369
0.001880671
0.0003814019
-0.001296374
-0.0024601
-0.002720312
-0.002927766
-0.004008815
-0.004183428
-0.003914347
-0.002219658
-0.001256802
0.0005709455
0.001447396
0.0008508097
-0.0003032929
-0.001141716
-0.001913936
-0.001646045
-0.0008151024
-0.0002211249
-2.035361e-05
-0.0001379067
-0.0003481157
-0.0005297619
-0.0006328261
-0.0006422205
-0.0005571106
-0.0003731351
3.734399e-06
0.001471579
0.001737965
0.002027051
0.002268205
0.002503346
0.002725018
0.002922916
0.003105821
0.003279475
0.003440985
0.003587157
0.003717388
0.003830785
0.003925601
0.004000044
0.00405411
0.004091459
0.004115853
0.004127801
0.004127039
0.004114555
0.004090635
0.004055896
0.004013497
0.003965457
0.00391236
0.00385762
0.003804049
0.003750703
0.003697407
0.003644813
0.003594652
0.003549847
0.003510313
0.003476222
0.003449789
0.003434147
0.003430406
0.003437772
0.003456149
0.003488023
0.003536942
0.003602283
0.003684513
0.003787312
0.003907989
0.004049291
0.00421838
0.004418083
0.004642872
0.004894445
0.005177027
0.005482719
0.005824359
0.006231577
0.006685818
0.007170973
0.007714316
0.008298192
0.008925049
0.009630087
0.01036346
0.01119329
0.01203467
0.0129276
0.01385524
0.01479771
0.01573738
0.01669313
0.0175195
0.01820966
0.01897699
0.01961783
0.02000703
0.02020062
0.02033927
0.02032324
0.02034025
0.02020276
0.0196441
0.01907698
0.01793933
0.01674556
0.01634662
0.01582627
0.01535937
0.01442917
0.01312335
0.01126533
0.009757452
0.008959637
0.008764102
0.008359188
0.008198081
0.00734641
0.006982862
0.006850679
0.005994715
0.005755031
0.006408584
0.004689594
0.003373708
0.003613983
0.003496895
0.003877831
0.005793094
0.00741942
0.00787261
0.00714094
0.00555411
0.003572228
0.002911313
0.00279033
0.002891732
0.003315096
0.004028513
0.004749362
0.005191907
0.005034436
0.004503161
0.003523698
0.001906924
5.808855e-05
-0.001169538
-0.001927926
-0.002327494
-0.003097992
-0.003789999
-0.003175153
-0.002868917
-0.001951573
-0.00141793
6.904679e-05
0.0006652093
0.000209921
-0.0004830172
-0.001247478
-0.001721739
-0.001539199
-0.0009113233
-0.0001790971
0.0001519849
8.73538e-05
-0.0001678008
-0.0004254508
-0.000595033
-0.0006536151
-0.0006046088
-0.0004518345
-0.0001220093
0.001640662
0.001936571
0.00225913
0.002528266
0.002787844
0.003033059
0.003254509
0.003460414
0.003655842
0.00383765
0.004002337
0.004148716
0.004275385
0.004380409
0.004462753
0.004522953
0.004564203
0.004590975
0.004604754
0.004604582
0.004590879
0.004565181
0.004528032
0.00448189
0.004430406
0.004374222
0.00431427
0.004254879
0.004197299
0.004139945
0.00408408
0.004029861
0.003980209
0.003937696
0.003901418
0.00387203
0.003851926
0.00384474
0.003850415
0.003868112
0.003897746
0.003942917
0.004006923
0.004087722
0.004186294
0.004306684
0.004445244
0.004608122
0.00480188
0.005025833
0.005274289
0.005552047
0.005857879
0.006189878
0.006574871
0.007025977
0.007512531
0.008041618
0.008616512
0.00925008
0.00994536
0.01065058
0.01147747
0.01230989
0.01320591
0.01412906
0.01506375
0.0160057
0.01699082
0.01786217
0.01855517
0.0192897
0.01991933
0.02033279
0.02062263
0.02075919
0.02073708
0.02075299
0.02062924
0.02010055
0.01974954
0.01880721
0.01741327
0.01663361
0.01624474
0.01583882
0.01498975
0.01360263
0.01186413
0.01041233
0.009319417
0.008775162
0.00865474
0.008567509
0.007533421
0.007092605
0.007136816
0.006883977
0.006160787
0.006365265
0.004165555
0.002888773
0.002600167
0.003206683
0.004127719
0.005912963
0.007360819
0.008435994
0.007455598
0.005564966
0.004198953
0.003536605
0.003280125
0.003267896
0.003584083
0.004241252
0.005001155
0.005436332
0.005475772
0.005191552
0.004299485
0.002630159
0.0007233671
-0.0007123556
-0.001806233
-0.002662458
-0.003485594
-0.003881283
-0.003089601
-0.002589739
-0.002035981
-0.00169329
-0.0004504396
-0.0001685691
-0.000497227
-0.0008412077
-0.001220764
-0.001509789
-0.00146211
-0.0008181543
3.635691e-05
0.0004178994
0.0003815999
7.107433e-05
-0.0002696894
-0.000509244
-0.0006164234
-0.0006036331
-0.0004880769
-0.000215292
0.001808625
0.002133929
0.002490161
0.002787832
0.003072388
0.003341306
0.003585718
0.003813006
0.004027508
0.004226017
0.004405138
0.004563563
0.004699751
0.00481153
0.004898239
0.004960893
0.005002118
0.005026097
0.005035396
0.005029221
0.005007044
0.004970815
0.004922287
0.004862917
0.004796841
0.004726533
0.004651478
0.0045742
0.004498825
0.004424998
0.004352033
0.004281622
0.004213973
0.004153624
0.004101695
0.004057246
0.004021421
0.003996812
0.003988143
0.003993394
0.004011962
0.004044419
0.004095977
0.004168816
0.00425924
0.004370916
0.004506499
0.004662383
0.004849567
0.005071195
0.005323025
0.005602848
0.005914423
0.006251203
0.006628816
0.007076452
0.007579998
0.00811624
0.008696136
0.009339557
0.01004246
0.01076036
0.01157031
0.01239865
0.01331506
0.01424831
0.01518192
0.01612144
0.01708254
0.01795415
0.01877678
0.01955179
0.02013364
0.02056118
0.02092613
0.02110051
0.02109398
0.02110718
0.02097418
0.02055864
0.0201653
0.01915605
0.01822686
0.01695176
0.01656177
0.01622818
0.01558587
0.01429617
0.01262306
0.01097542
0.009596016
0.008970538
0.008967125
0.008875347
0.007870782
0.007862857
0.007608545
0.006866412
0.006229897
0.005484638
0.003920571
0.002761834
0.002838985
0.002886505
0.004354186
0.005802696
0.006406309
0.008040575
0.007240085
0.00582039
0.004853553
0.004047156
0.003660316
0.003449068
0.003629247
0.0042162
0.004866865
0.005371117
0.005658837
0.005588726
0.004834696
0.003321168
0.001385839
-0.0004484133
-0.001898699
-0.002734944
-0.003435916
-0.003950219
-0.003393181
-0.003005105
-0.002520743
-0.002269932
-0.001385078
-0.001039714
-0.001088561
-0.001176958
-0.001306389
-0.001424948
-0.001167581
-0.000449661
-1.984191e-05
0.0002522272
0.0003188484
3.021893e-05
-0.0002957288
-0.0005183862
-0.0006086578
-0.0005868434
-0.000483797
-0.0002562433
0.001975159
0.002329666
0.002719648
0.003046344
0.003356658
0.003650303
0.003919067
0.004169771
0.004406265
0.004625346
0.004823605
0.004999388
0.005150719
0.005275007
0.005371545
0.005441766
0.005488205
0.005514495
0.005523953
0.005516754
0.005491901
0.005450898
0.005396702
0.005330876
0.005256519
0.005177928
0.005095361
0.005008598
0.00492213
0.00483825
0.004755896
0.004676371
0.004599824
0.004528545
0.004467128
0.004414845
0.004371543
0.004338077
0.00431817
0.004316385
0.004328704
0.004355039
0.004397342
0.004461954
0.004548535
0.004652368
0.004781314
0.00493401
0.005110053
0.005322555
0.005569605
0.005846684
0.006156214
0.006493936
0.006857194
0.007280469
0.007779336
0.008317358
0.008890057
0.00951585
0.01021954
0.01096556
0.01171427
0.01253369
0.01344592
0.01437812
0.01531389
0.01625134
0.01722471
0.0181455
0.01886493
0.01963465
0.02033994
0.02077396
0.02114075
0.02137388
0.02140666
0.02143715
0.02134193
0.0208815
0.02048575
0.01967214
0.01877954
0.01722239
0.01680416
0.0165321
0.01590457
0.01471037
0.0131669
0.01155976
0.009985885
0.009239315
0.009391293
0.009701893
0.008817497
0.008267542
0.007497958
0.006506573
0.005548529
0.005258609
0.004794694
0.003067874
0.002905339
0.003373383
0.002854589
0.003509182
0.006004739
0.007071065
0.007183646
0.006014858
0.005426772
0.004547863
0.004276134
0.003892416
0.003837475
0.004167602
0.004602608
0.00512905
0.005585204
0.005761447
0.005293304
0.003993767
0.002045551
-6.950011e-05
-0.001744378
-0.002662254
-0.003278775
-0.004047368
-0.00402355
-0.003715167
-0.003196472
-0.002815885
-0.00222718
-0.001734583
-0.001466053
-0.001302372
-0.001322288
-0.001326016
-0.0009986518
-0.0004608008
-0.0003712707
-0.000116673
0.0001175627
-0.0002958195
-0.0005728448
-0.0006756933
-0.000671171
-0.0005626516
-0.0004107861
-0.000192044
0.002139773
0.002523195
0.002946849
0.003302878
0.003639548
0.003958701
0.004252713
0.004527815
0.004787267
0.005027649
0.005245309
0.005438134
0.005603677
0.005739168
0.005843795
0.005919422
0.005968869
0.005995384
0.006002372
0.005991192
0.005960959
0.005912369
0.005848778
0.005772833
0.005686452
0.005594368
0.005498971
0.005398993
0.00529649
0.005196523
0.005099274
0.005004202
0.004913894
0.004827269
0.004749626
0.004683435
0.004627343
0.004581628
0.004547649
0.004531294
0.004532934
0.004550257
0.004582786
0.004634721
0.004712543
0.004812144
0.00493082
0.005078174
0.005250101
0.005452741
0.005692701
0.005967982
0.006276535
0.006619093
0.006987193
0.007392488
0.007871616
0.008416346
0.00899623
0.009612094
0.01031238
0.01106114
0.01178031
0.01262461
0.01351595
0.01443698
0.01536838
0.0163126
0.01725715
0.01821936
0.01900014
0.01970818
0.02048931
0.02093901
0.02128502
0.0215696
0.02166489
0.02162921
0.02164859
0.02132665
0.02068578
0.02010908
0.01931634
0.0177229
0.0169847
0.01672351
0.01623484
0.01519981
0.0137072
0.01186208
0.01037079
0.009529471
0.009629121
0.00989283
0.009103451
0.008392019
0.007849106
0.00680996
0.00589094
0.005241845
0.004697684
0.002859807
0.00210677
0.002850529
0.003050728
0.002977525
0.005283097
0.005969736
0.00630776
0.005394049
0.004882948
0.004567507
0.005215302
0.004733763
0.004090058
0.00395729
0.004436871
0.005083268
0.005423526
0.005799847
0.005718872
0.004668417
0.002737478
0.0004701508
-0.001487948
-0.002654904
-0.00332493
-0.004372855
-0.00483152
-0.00441603
-0.003736431
-0.003033907
-0.002648438
-0.002364758
-0.001818043
-0.001327207
-0.001231109
-0.001164076
-0.0007819826
-0.0003722955
-0.0002837063
5.028245e-05
-0.000316869
-0.001283993
-0.001442654
-0.001309496
-0.001126705
-0.0007317271
-0.0003663257
-5.578548e-05
0.002301821
0.002713758
0.003170838
0.003556334
0.00391982
0.004265198
0.004585419
0.004886188
0.005170221
0.005433871
0.005673229
0.00588574
0.006068538
0.006218701
0.006335236
0.006420225
0.006476774
0.006507853
0.006516491
0.006504907
0.006472846
0.006420392
0.006350612
0.006267281
0.006172287
0.006069302
0.005962841
0.005852616
0.005738085
0.005624136
0.005513699
0.005406281
0.005303488
0.00520552
0.005113973
0.005034736
0.004967437
0.004911654
0.00486698
0.004836434
0.004827541
0.004835514
0.004860276
0.004901728
0.004966982
0.005059996
0.005172148
0.005309078
0.005475135
0.005666405
0.005896747
0.006163457
0.006466055
0.006805713
0.007175049
0.007567974
0.008023047
0.008556383
0.009139477
0.009744429
0.01043359
0.0111689
0.0118752
0.01270894
0.01358889
0.01452214
0.01542515
0.01635615
0.01729893
0.01827836
0.01908504
0.01978697
0.02057665
0.02110096
0.02144774
0.02175656
0.02190962
0.02192822
0.02188543
0.02135802
0.02103128
0.02051755
0.01938453
0.01843375
0.01721561
0.0169008
0.01655879
0.01567666
0.01407541
0.01220122
0.01068186
0.009818295
0.00981478
0.009770651
0.009614793
0.008749353
0.00787332
0.00724122
0.006846252
0.005407428
0.003658407
0.002687506
0.002445065
0.002507257
0.002919035
0.003626886
0.00535321
0.004284828
0.005234628
0.004953588
0.004022515
0.004348159
0.004570274
0.004496161
0.004628475
0.004030006
0.004106742
0.004992566
0.004814896
0.005416061
0.006021642
0.005227134
0.003279797
0.001066142
-0.001095262
-0.002576102
-0.003323332
-0.004606268
-0.005355707
-0.005198057
-0.004619015
-0.003749986
-0.002822119
-0.002182306
-0.001652406
-0.001309757
-0.001121187
-0.0009000927
-0.0003011003
0.0001139563
0.0001666186
0.0003681694
-0.0009541837
-0.002679861
-0.002802073
-0.002636916
-0.002037363
-0.0009594563
-0.0001564122
0.0001769862
0.002460531
0.002900448
0.003390523
0.003805422
0.004196
0.004568162
0.004915429
0.005243034
0.00555317
0.005841897
0.006104938
0.006339181
0.006541239
0.006707917
0.00683799
0.006933516
0.006997834
0.007033785
0.007044053
0.007031241
0.006996075
0.006938502
0.006861033
0.006768131
0.006662641
0.00654696
0.006426431
0.006302962
0.006174977
0.00604493
0.005918406
0.005795784
0.005677114
0.005565468
0.005458764
0.005362968
0.00528126
0.005212175
0.005155812
0.00511192
0.005086825
0.005083937
0.005098775
0.005130822
0.005182808
0.00526425
0.005371858
0.005497614
0.005655722
0.005842521
0.006059417
0.006317096
0.00661346
0.006948761
0.007320002
0.007711035
0.008143097
0.008659516
0.009241765
0.00984741
0.01052424
0.01124322
0.0119549
0.01276524
0.0136159
0.0145736
0.01546755
0.01639278
0.01732879
0.01829079
0.01913793
0.01982805
0.02055264
0.0212567
0.02159121
0.02189318
0.02207556
0.02207111
0.02205055
0.02169878
0.02121354
0.02089798
0.01977119
0.01869827
0.01746255
0.01704904
0.0167183
0.01590616
0.01450834
0.01256646
0.01095257
0.01002722
0.01003898
0.009969526
0.009738208
0.008950527
0.007981478
0.007283268
0.006850075
0.005848072
0.003907872
0.002846697
0.002117007
0.002409519
0.0022053
0.003123166
0.005100476
0.005528519
0.005745439
0.004705319
0.003051751
0.003356838
0.003721989
0.00363442
0.004823799
0.004935979
0.004539099
0.003920188
0.003465541
0.004184056
0.006198145
0.005981652
0.003728127
0.001528398
-0.0008287793
-0.00257164
-0.0034528
-0.004169804
-0.004966918
-0.005279357
-0.005006589
-0.004453088
-0.003595927
-0.002615722
-0.001837342
-0.001357506
-0.001018393
-0.0004656881
0.0005723148
0.001153745
0.001023217
0.0006268105
-0.001447616
-0.002685024
-0.003594536
-0.004291948
-0.002832676
-0.0007207308
0.0007237222
0.0006001548
0.002615046
0.003082252
0.003604685
0.004048705
0.004466433
0.004865734
0.005240718
0.005596223
0.005933979
0.006249737
0.006538794
0.006797414
0.007021621
0.007207854
0.007354672
0.007463885
0.007538915
0.00758259
0.007597407
0.007585896
0.007549706
0.007489108
0.007406093
0.007305294
0.007190731
0.00706443
0.006930981
0.006794686
0.0066546
0.006510603
0.006368319
0.006230548
0.006097338
0.005970962
0.005851
0.005739199
0.005642119
0.00555939
0.005490871
0.005434828
0.005394177
0.005378317
0.0053816
0.005404526
0.005445435
0.00551132
0.005610327
0.005730535
0.005875377
0.006053155
0.006259561
0.006506751
0.00679149
0.007117975
0.007483502
0.007876393
0.008298317
0.008786445
0.009352104
0.009958941
0.01061247
0.01134687
0.01208536
0.01282347
0.01365102
0.01458075
0.01549987
0.01642359
0.017372
0.018343
0.01921618
0.01984826
0.02052898
0.02128354
0.02177006
0.02204326
0.02221407
0.02223465
0.02224941
0.02201068
0.02132752
0.02103272
0.02038209
0.01876295
0.01778265
0.01724719
0.01696358
0.01624579
0.01481437
0.01295731
0.01125397
0.01014699
0.009970539
0.0100838
0.01003573
0.009338721
0.008332283
0.007673765
0.006947999
0.005205561
0.003728889
0.003669973
0.002806519
0.001817013
0.002607983
0.003948562
0.003962895
0.004241043
0.005866639
0.004881811
0.003455354
0.003686097
0.003463484
0.003093586
0.005103056
0.004965439
0.003896463
0.004994787
0.004293998
0.004877048
0.006037561
0.005648689
0.003997172
0.001898208
-0.0004149985
-0.002208257
-0.003200596
-0.003776294
-0.004605752
-0.005081785
-0.004989075
-0.004692536
-0.004040559
-0.003179204
-0.002354034
-0.00178432
-0.001242348
-0.0001852573
0.001619888
0.002443574
0.002309277
0.001643042
-0.001185867
-0.003424822
-0.004845935
-0.004895521
-0.003381293
-0.0004901095
0.001833366
0.001476801
0.002764458
0.003258101
0.003812033
0.004284656
0.004729341
0.005155882
0.005559014
0.005943286
0.006310049
0.006654779
0.006972314
0.007258216
0.007507792
0.007716946
0.007883908
0.008010038
0.008098633
0.008152535
0.008174025
0.008165405
0.00812898
0.008065711
0.007977325
0.007868314
0.007743697
0.007606141
0.007458874
0.007307677
0.007153478
0.006994797
0.006835249
0.006680465
0.006530747
0.006386936
0.006252252
0.006123999
0.00600911
0.005910592
0.005827126
0.00575871
0.00570397
0.005670213
0.005661478
0.005672927
0.005703887
0.005755778
0.005840551
0.005954896
0.006087483
0.006255668
0.006455832
0.006687328
0.006961877
0.007278698
0.00763877
0.008032209
0.008444117
0.008908035
0.009456261
0.01006642
0.0107047
0.01142277
0.01216745
0.01288369
0.01371678
0.01460826
0.01553932
0.01646227
0.01737386
0.01829948
0.01926795
0.02001126
0.02059733
0.02129852
0.02181799
0.0221189
0.0223348
0.02238127
0.02231399
0.0221316
0.0216265
0.02117693
0.02053506
0.01904974
0.01805475
0.01723557
0.01691815
0.01636832
0.01520064
0.01336389
0.01159031
0.01026095
0.009857972
0.01010562
0.01033242
0.009779155
0.008593177
0.007629292
0.006821766
0.00554386
0.003873799
0.003571925
0.002293406
0.001661158
0.003500169
0.004397276
0.003541105
0.005320816
0.006048219
0.003989812
0.002817196
0.003491241
0.003570406
0.002989704
0.004659542
0.00480182
0.003895907
0.005457135
0.004605384
0.004759154
0.00563671
0.005794466
0.004243864
0.00222206
-0.0001122191
-0.001901711
-0.002917309
-0.003328075
-0.004061328
-0.0046946
-0.004780662
-0.004634041
-0.004043855
-0.003010265
-0.00214293
-0.001647593
-0.001152823
-0.0001971232
0.001353083
0.002101008
0.002617814
0.002607447
-0.001014219
-0.003821551
-0.005735405
-0.005393467
-0.003686853
-0.001332062
0.000693928
0.0008774794
0.00290786
0.003426919
0.004011265
0.004511723
0.0049829
0.005436489
0.005867899
0.006281516
0.006678444
0.007053965
0.007402505
0.007718882
0.007997535
0.008233587
0.00842469
0.008571582
0.008677251
0.008744482
0.008775308
0.008771908
0.00873696
0.008672334
0.008579843
0.008463744
0.008329723
0.008181504
0.008021413
0.007855219
0.007686318
0.007513267
0.007337202