/*--------------------------------*- C++ -*----------------------------------*\
| =========                 |                                                 |
| \\      /  F ield         | OpenFOAM: The Open Source CFD Toolbox           |
|  \\    /   O peration     | Version:  2106                                  |
|   \\  /    A nd           | Website:  www.openfoam.com                      |
|    \\/     M anipulation  |                                                 |
\*---------------------------------------------------------------------------*/
FoamFile
{
    version     2.0;
    format      ascii;
    arch        "LSB;label=32;scalar=64";
    class       volScalarField;
    location    "170";
    object      p;
}
// * * * * * * * * * * * * * * * * * * * * * * * * * * * * * * * * * * * * * //

dimensions      [ 0 2 -2 0 0 0 0 ];

internalField   nonuniform List<scalar> 
300000
(
0.0001924366
0.0002820355
0.0003888033
0.000492598
0.0005944153
0.0006956538
0.0007962478
0.0008957339
0.000993626
0.001089426
0.001182608
0.001272631
0.001358968
0.001441127
0.001518674
0.001591244
0.001658549
0.00172038
0.001776601
0.001827148
0.001872021
0.001911271
0.001944996
0.00197333
0.001996438
0.002014508
0.002027745
0.002036367
0.002040603
0.002040688
0.002036858
0.002029351
0.002018405
0.002004254
0.001987126
0.001967247
0.001944834
0.001920098
0.001893242
0.001864462
0.001833948
0.001801879
0.00176843
0.001733769
0.001698055
0.001661443
0.001624078
0.001586103
0.001547652
0.001508851
0.001469822
0.001430679
0.001391531
0.001352476
0.00131361
0.001275019
0.001236784
0.001198979
0.001161673
0.001124926
0.001088795
0.001053329
0.001018575
0.0009845696
0.0009513486
0.0009189411
0.0008873716
0.0008566604
0.0008268231
0.0007978715
0.0007698133
0.0007426522
0.0007163883
0.0006910181
0.0006665346
0.0006429276
0.0006201836
0.0005982861
0.000577216
0.000556952
0.000537471
0.0005187483
0.0005007582
0.0004834745
0.0004668711
0.0004509221
0.0004356018
0.0004208854
0.0004067481
0.0003931665
0.0003801188
0.000367585
0.0003555468
0.000343988
0.0003328951
0.000322257
0.0003120657
0.0003023161
0.0002930066
0.0002841383
0.0002757163
0.0002677487
0.0002602476
0.0002532286
0.0002467104
0.0002407149
0.0002352672
0.0002303954
0.0002261303
0.0002225059
0.0002195591
0.0002173294
0.0002158589
0.0002151922
0.0002153764
0.0002164608
0.0002184977
0.0002215425
0.0002256537
0.0002308937
0.0002373292
0.0002450319
0.0002540793
0.0002645558
0.0002765532
0.0002901726
0.0003055253
0.0003227344
0.0003419362
0.0003632813
0.0003869351
0.0004130783
0.0004419069
0.0004736319
0.0005084767
0.0005466752
0.0005884668
0.0006340905
0.0006837756
0.0007377299
0.0007961229
0.000859064
0.0009265726
0.0009985255
0.001074533
0.001153643
0.001233285
0.001309056
0.00136457
0.00140363
0.0003925154
0.0004803859
0.0005829584
0.0006715296
0.000749097
0.0008201904
0.0008859014
0.0009461359
0.001000727
0.00104951
0.00109227
0.001128775
0.001158828
0.001182312
0.001199204
0.001209583
0.001213622
0.001211579
0.001203781
0.001190607
0.001172472
0.001149811
0.001123071
0.001092694
0.001059119
0.001022767
0.0009840455
0.0009433415
0.0009010212
0.0008574285
0.0008128848
0.0007676884
0.0007221139
0.0006764131
0.0006308145
0.0005855244
0.0005407275
0.0004965883
0.0004532519
0.0004108456
0.0003694803
0.0003292524
0.0002902444
0.0002525266
0.000216158
0.0001811874
0.0001476538
0.0001155874
8.500959e-05
5.593395e-05
2.836636e-05
2.305579e-06
-2.225631e-05
-4.53333e-05
-6.694496e-05
-8.711579e-05
-0.0001058747
-0.0001232542
-0.0001392904
-0.0001540219
-0.0001674896
-0.0001797364
-0.0001908068
-0.0002007463
-0.0002096015
-0.0002174197
-0.0002242487
-0.0002301363
-0.0002351308
-0.0002392803
-0.0002426328
-0.0002452364
-0.0002471389
-0.000248388
-0.000249031
-0.0002491152
-0.0002486875
-0.0002477943
-0.000246481
-0.0002447914
-0.0002427676
-0.0002404497
-0.0002378752
-0.0002350786
-0.0002320911
-0.0002289407
-0.000225653
-0.0002222513
-0.0002187569
-0.0002151869
-0.000211555
-0.0002078718
-0.0002041452
-0.0002003805
-0.0001965796
-0.0001927413
-0.0001888615
-0.0001849333
-0.0001809464
-0.0001768881
-0.0001727423
-0.0001684906
-0.0001641115
-0.0001595813
-0.0001548749
-0.0001499656
-0.000144825
-0.0001394239
-0.000133732
-0.0001277177
-0.0001213483
-0.0001145901
-0.0001074089
-9.976985e-05
-9.163789e-05
-8.297713e-05
-7.37508e-05
-6.392088e-05
-5.344757e-05
-4.228854e-05
-3.03983e-05
-1.772749e-05
-4.222245e-06
1.017646e-05
2.553344e-05
4.192138e-05
5.942196e-05
7.812637e-05
9.81355e-05
0.0001195601
0.0001425205
0.0001671477
0.0001935822
0.0002219714
0.0002524642
0.0002852052
0.0003203263
0.0003579362
0.0003981039
0.0004408364
0.0004860445
0.0005334925
0.0005827259
0.0006329613
0.0006829273
0.0007306844
0.000773403
0.0008084773
0.0008289978
0.0008446129
0.000574002
0.0006818014
0.0008141331
0.0009355438
0.00104839
0.001157685
0.001264193
0.001367139
0.001465742
0.001559315
0.001647167
0.001728625
0.001803102
0.001870135
0.001929409
0.001980756
0.00202414
0.002059645
0.002087452
0.002107824
0.00212108
0.002127583
0.002127725
0.002121913
0.002110566
0.002094103
0.002072943
0.0020475
0.00201818
0.001985377
0.001949472
0.001910833
0.001869809
0.001826734
0.00178192
0.001735661
0.001688233
0.001639889
0.001590866
0.001541383
0.00149164
0.001441825
0.001392107
0.001342644
0.00129358
0.001245047
0.001197165
0.001150042
0.001103775
0.001058451
0.001014144
0.0009709199
0.0009288338
0.0008879317
0.000848251
0.0008098209
0.0007726633
0.0007367935
0.0007022204
0.0006689477
0.0006369738
0.0006062927
0.000576894
0.0005487637
0.0005218843
0.0004962352
0.000471793
0.0004485318
0.0004264231
0.0004054366
0.0003855394
0.0003666967
0.0003488717
0.0003320255
0.0003161178
0.0003011059
0.0002869455
0.0002735911
0.0002609966
0.0002491166
0.000237906
0.000227321
0.0002173196
0.0002078628
0.0001989151
0.0001904438
0.000182418
0.000174808
0.000167586
0.0001607284
0.0001542163
0.0001480339
0.0001421686
0.0001366116
0.0001313587
0.0001264103
0.0001217704
0.0001174468
0.0001134514
0.0001098003
0.0001065136
0.0001036155
0.0001011353
9.910519e-05
9.755923e-05
9.653463e-05
9.607145e-05
9.62125e-05
9.700266e-05
9.848988e-05
0.0001007253
0.0001037616
0.0001076526
0.0001124543
0.0001182239
0.0001250213
0.0001329087
0.0001419513
0.0001522182
0.0001637834
0.000176727
0.0001911363
0.0002071069
0.0002247436
0.0002441603
0.0002654869
0.0002888714
0.0003144786
0.0003424892
0.0003731001
0.0004065245
0.0004429956
0.0004827674
0.0005261097
0.0005733025
0.0006246281
0.000680361
0.0007407532
0.0008060122
0.0008762714
0.000951545
0.001031668
0.001116218
0.001204414
0.00129498
0.001385949
0.001474282
0.001555491
0.001619895
0.001663954
0.0007481371
0.0008812263
0.001040699
0.001183129
0.001311427
0.001431726
0.001545121
0.001650863
0.001748191
0.001836469
0.001915066
0.001983396
0.002040992
0.002087565
0.002123022
0.002147457
0.002161135
0.002164465
0.002157969
0.002142254
0.002117987
0.002085866
0.002046603
0.002000908
0.001949483
0.001893008
0.001832142
0.001767514
0.001699727
0.001629349
0.001556915
0.001482927
0.00140785
0.001332115
0.001256115
0.001180209
0.001104722
0.001029946
0.0009561417
0.000883542
0.0008123526
0.0007427557
0.0006749112
0.0006089588
0.0005450198
0.0004831983
0.0004235817
0.0003662423
0.0003112374
0.0002586102
0.0002083903
0.0001605946
0.0001152278
7.228371e-05
3.174603e-05
-6.41068e-06
-4.221991e-05
-7.572226e-05
-0.0001069645
-0.0001359989
-0.0001628823
-0.0001876756
-0.0002104432
-0.0002312523
-0.0002501727
-0.000267276
-0.0002826354
-0.0002963255
-0.0003084217
-0.0003190001
-0.0003281379
-0.0003359133
-0.000342405
-0.0003476924
-0.0003518553
-0.0003549746
-0.0003571317
-0.0003584077
-0.0003588818
-0.0003586304
-0.000357727
-0.0003562424
-0.0003542425
-0.0003517858
-0.0003489238
-0.000345703
-0.0003421672
-0.0003383581
-0.0003343147
-0.0003300632
-0.0003256268
-0.0003210267
-0.0003162816
-0.0003114047
-0.0003064021
-0.0003012745
-0.0002960167
-0.0002906183
-0.0002850631
-0.0002793292
-0.0002733894
-0.0002672107
-0.0002607548
-0.0002539819
-0.0002468497
-0.0002393123
-0.0002313212
-0.0002228261
-0.0002137781
-0.0002041227
-0.0001937977
-0.0001827407
-0.0001708891
-0.0001581799
-0.0001445494
-0.0001299326
-0.0001142629
-9.747126e-05
-7.948541e-05
-6.022842e-05
-3.96172e-05
-1.756101e-05
6.0402e-06
3.129608e-05
5.831741e-05
8.723738e-05
0.0001182146
0.0001514285
0.0001870777
0.0002253779
0.000266564
0.0003109006
0.0003586753
0.0004101882
0.0004657472
0.0005256622
0.0005902336
0.0006597316
0.0007343646
0.0008142385
0.0008992946
0.0009892269
0.00108337
0.001180543
0.001278847
0.0013754
0.001466028
0.001545156
0.001604701
0.001640733
0.0009181903
0.001078202
0.001267034
0.00143396
0.001584045
0.001725348
0.001859541
0.001985943
0.002103739
0.002212174
0.002310457
0.002397825
0.002473654
0.002537531
0.002589276
0.002628934
0.002656744
0.002673112
0.002678571
0.002673749
0.002659337
0.002636059
0.002604652
0.002565848
0.002520372
0.002468926
0.002412192
0.002350826
0.002285457
0.002216683
0.002145073
0.002071163
0.001995454
0.001918414
0.001840475
0.001762035
0.001683456
0.001605069
0.001527172
0.001450034
0.001373897
0.001298981
0.001225479
0.001153568
0.001083401
0.001015115
0.000948831
0.0008846502
0.0008226586
0.0007629263
0.0007055075
0.0006504417
0.0005977544
0.0005474581
0.0004995535
0.0004540305
0.0004108694
0.0003700423
0.0003315135
0.0002952411
0.0002611771
0.0002292688
0.0001994588
0.0001716861
0.0001458864
0.0001219925
9.993529e-05
7.964362e-05
6.10449e-05
4.406501e-05
2.862803e-05
1.465597e-05
2.069102e-06
-9.213509e-06
-1.927468e-05
-2.819979e-05
-3.607597e-05
-4.299027e-05
-4.902739e-05
-5.426889e-05
-5.879381e-05
-6.26796e-05
-6.59974e-05
-6.88083e-05
-7.116336e-05
-7.310853e-05
-7.469005e-05
-7.595743e-05
-7.696813e-05
-7.773882e-05
-7.828184e-05
-7.860992e-05
-7.873624e-05
-7.866405e-05
-7.838723e-05
-7.789744e-05
-7.718299e-05
-7.622693e-05
-7.500651e-05
-7.349296e-05
-7.165126e-05
-6.943932e-05
-6.680631e-05
-6.370229e-05
-6.007574e-05
-5.587038e-05
-5.102539e-05
-4.547594e-05
-3.915297e-05
-3.198733e-05
-2.391156e-05
-1.485613e-05
-4.749503e-06
6.481821e-06
1.891335e-05
3.262296e-05
4.769138e-05
6.420307e-05
8.224731e-05
0.0001019197
0.0001233241
0.0001465748
0.000171799
0.0001991409
0.000228768
0.0002608624
0.0002956243
0.0003332786
0.000374077
0.0004182879
0.0004662038
0.0005181876
0.0005746405
0.000635975
0.0007026111
0.0007749804
0.0008535143
0.0009386199
0.001030642
0.001129809
0.001236162
0.001349451
0.001469
0.001593533
0.001720947
0.001848022
0.001970035
0.00208034
0.002168636
0.002222868
0.001085933
0.001273464
0.00149278
0.00168491
0.00185654
0.002017259
0.00216892
0.0023106
0.002441234
0.002559834
0.002665396
0.002756988
0.002833883
0.002895645
0.00294214
0.002973521
0.002990182
0.002992717
0.002981879
0.002958531
0.002923605
0.002878069
0.002822899
0.00275906
0.002687498
0.002609129
0.002524838
0.002435472
0.00234184
0.002244709
0.002144802
0.002042799
0.001939331
0.001834983
0.001730292
0.001625747
0.001521788
0.001418815
0.001317183
0.001217209
0.001119174
0.001023329
0.0009298917
0.0008390566
0.0007509916
0.0006658417
0.0005837299
0.0005047577
0.0004290063
0.0003565369
0.0002873915
0.0002215943
0.0001591523
0.0001000572
4.42866e-05
-8.194586e-06
-5.743235e-05
-0.0001034824
-0.0001464089
-0.0001862835
-0.0002231841
-0.0002571943
-0.0002884026
-0.0003169015
-0.0003427869
-0.0003661574
-0.0003871137
-0.000405758
-0.0004221937
-0.0004365257
-0.0004488604
-0.0004593075
-0.0004679784
-0.0004749853
-0.0004804432
-0.0004844711
-0.0004871892
-0.0004887161
-0.0004891646
-0.0004886434
-0.000487257
-0.0004851114
-0.0004822933
-0.0004788731
-0.0004749092
-0.0004704564
-0.0004655755
-0.0004603186
-0.0004547309
-0.0004488624
-0.0004427573
-0.0004364526
-0.0004299956
-0.0004234115
-0.0004166945
-0.000409835
-0.0004028193
-0.0003956274
-0.0003882326
-0.000380601
-0.0003726918
-0.0003644569
-0.0003558417
-0.0003467865
-0.0003372277
-0.0003270965
-0.0003163195
-0.0003048183
-0.0002925085
-0.0002793082
-0.0002651423
-0.0002499336
-0.0002336021
-0.0002160659
-0.0001972406
-0.0001770397
-0.0001553733
-0.0001321477
-0.0001072637
-8.061528e-05
-5.208679e-05
-2.155072e-05
1.113599e-05
4.613727e-05
8.365189e-05
0.0001238925
0.0001670881
0.0002134974
0.0002634179
0.0003171923
0.000375157
0.0004377291
0.0005053898
0.0005786403
0.0006580052
0.0007440395
0.0008373012
0.0009383262
0.001047587
0.001165431
0.001291987
0.001427038
0.001569848
0.001718924
0.001871708
0.00202418
0.002170289
0.002301411
0.002405001
0.002463461
0.001252298
0.001467603
0.001718152
0.001936427
0.002130693
0.002312294
0.002483506
0.002643382
0.002790782
0.002924625
0.003043795
0.003147255
0.003234214
0.003304226
0.003357198
0.003393355
0.003413194
0.003417429
0.003406942
0.003382732
0.003345864
0.003297429
0.003238517
0.003170194
0.003093499
0.003009431
0.002918954
0.002822984
0.002722396
0.002618019
0.002510634
0.002400971
0.002289713
0.002177487
0.00206487
0.001952386
0.00184051
0.001729667
0.001620237
0.00151256
0.001406936
0.001303634
0.001202889
0.001104912
0.001009883
0.0009179635
0.0008292874
0.0007439678
0.0006620953
0.0005837388
0.0005089466
0.0004377466
0.0003701485
0.0003061446
0.0002457118
0.0001888135
0.0001354009
8.541446e-05
3.878569e-05
-4.562203e-06
-4.471316e-05
-8.175743e-05
-0.0001157907
-0.0001469133
-0.0001752292
-0.0002008454
-0.0002238711
-0.0002444169
-0.0002625947
-0.0002785177
-0.0002923021
-0.0003040691
-0.0003139434
-0.0003220505
-0.0003285224
-0.0003334989
-0.0003371196
-0.000339519
-0.0003408216
-0.0003411537
-0.0003406389
-0.0003394327
-0.000337647
-0.0003353415
-0.0003325581
-0.0003293418
-0.0003257332
-0.0003217569
-0.0003174374
-0.0003128408
-0.0003080199
-0.0003030089
-0.0002978215
-0.0002924698
-0.0002869674
-0.000281316
-0.0002755054
-0.0002695151
-0.000263315
-0.0002568657
-0.0002501189
-0.0002430178
-0.000235498
-0.0002274882
-0.0002189118
-0.0002096875
-0.0001997291
-0.0001889468
-0.0001772476
-0.0001645379
-0.0001507246
-0.0001357137
-0.0001194098
-0.0001017162
-8.253459e-05
-6.176457e-05
-3.930264e-05
-1.504091e-05
1.113463e-05
3.934627e-05
6.972723e-05
0.0001024249
0.0001376048
0.0001754552
0.0002161933
0.0002600628
0.0003073392
0.0003583391
0.0004134343
0.0004730802
0.000537799
0.0006080903
0.0006844992
0.0007676008
0.0008580466
0.0009565933
0.001064012
0.001181061
0.001308435
0.001446701
0.001596199
0.001756881
0.001928084
0.00210822
0.002294372
0.00248175
0.002662959
0.002827122
0.002958332
0.003031338
0.001417747
0.001660952
0.001943225
0.002188371
0.002406079
0.00260937
0.002800863
0.00297945
0.003143767
0.003292489
0.003424241
0.003537762
0.003632104
0.003706746
0.003761593
0.003796928
0.003813343
0.003811685
0.003792997
0.003758457
0.003709318
0.00364686
0.003572351
0.003487038
0.00339213
0.003288796
0.003178158
0.003061293
0.002939224
0.002812925
0.002683311
0.002551242
0.002417519
0.002282879
0.002147999
0.002013494
0.001879916
0.001747762
0.001617473
0.001489443
0.00136402
0.001241511
0.001122188
0.001006291
0.0008940283
0.000785581
0.0006811021
0.0005807183
0.0004845305
0.0003926137
0.0003050188
0.0002217729
0.0001428818
6.833111e-05
-1.910991e-06
-6.789206e-05
-0.0001296733
-0.000187328
-0.0002409398
-0.0002906016
-0.000336415
-0.0003784885
-0.0004169373
-0.0004518819
-0.0004834466
-0.0005117592
-0.0005369494
-0.0005591485
-0.000578489
-0.0005951036
-0.0006091297
-0.0006207127
-0.0006300031
-0.0006371521
-0.0006423257
-0.0006457043
-0.0006474629
-0.0006477623
-0.0006467257
-0.0006444865
-0.0006411746
-0.0006369016
-0.0006318169
-0.0006260785
-0.0006197666
-0.0006129503
-0.0006056944
-0.0005980559
-0.0005900875
-0.000581847
-0.0005733812
-0.0005647195
-0.0005558596
-0.0005468089
-0.0005375937
-0.0005282248
-0.000518696
-0.0005089879
-0.0004990694
-0.0004888978
-0.00047842
-0.0004675729
-0.0004562847
-0.0004444753
-0.0004320579
-0.0004189398
-0.0004050231
-0.0003902055
-0.0003743815
-0.0003574444
-0.0003392871
-0.0003198024
-0.0002988822
-0.0002764181
-0.0002523005
-0.0002264179
-0.0001986559
-0.0001688952
-0.0001370096
-0.0001028635
-6.63088e-05
-2.71811e-05
1.47049e-05
5.956047e-05
0.0001076286
0.0001591883
0.0002145611
0.0002741193
0.0003382988
0.0004076175
0.00048271
0.0005641978
0.0006527583
0.0007491154
0.0008541345
0.00096875
0.001093961
0.001230841
0.001380389
0.001543478
0.001720748
0.001912402
0.002117915
0.002335626
0.00256217
0.002791722
0.003014999
0.003217948
0.00338
0.00346868
0.001582418
0.001853583
0.002167921
0.002440541
0.002682479
0.0029084
0.003121269
0.003319833
0.003502513
0.003667752
0.003813942
0.003939627
0.004043744
0.004125745
0.004185583
0.004223633
0.004240612
0.00423752
0.004215571
0.004176132
0.004120639
0.004050546
0.003967284
0.003872247
0.003766786
0.003652198
0.00352973
0.003400573
0.003265856
0.003126654
0.002983973
0.002838759
0.002691889
0.00254417
0.002396339
0.002249063
0.002102939
0.001958503
0.001816227
0.001676533
0.001539789
0.001406324
0.001276426
0.001150349
0.001028317
0.0009105203
0.0007971233
0.0006882603
0.0005840381
0.0004845355
0.0003898045
0.0002998715
0.0002147393
0.0001343892
5.878343e-05
-1.213233e-05
-7.842709e-05
-0.0001401826
-0.0001974918
-0.000250458
-0.0002991937
-0.0003438197
-0.0003844643
-0.0004212612
-0.0004543487
-0.0004838675
-0.0005099606
-0.0005327723
-0.0005524477
-0.0005691309
-0.0005829738
-0.0005941413
-0.0006028005
-0.0006091274
-0.0006133268
-0.0006156339
-0.0006162649
-0.0006154385
-0.0006133522
-0.000610103
-0.0006057862
-0.0006004539
-0.0005941961
-0.0005871507
-0.0005794666
-0.0005712666
-0.0005626483
-0.0005536917
-0.0005444633
-0.0005350222
-0.0005254176
-0.0005156854
-0.0005058461
-0.0004959157
-0.0004859064
-0.0004758172
-0.0004656324
-0.0004553233
-0.0004448493
-0.0004341574
-0.0004231837
-0.0004118533
-0.0004000814
-0.0003877745
-0.0003748311
-0.0003611432
-0.0003465974
-0.0003310759
-0.0003144579
-0.0002966212
-0.000277443
-0.0002568004
-0.0002345704
-0.0002106299
-0.0001848553
-0.0001571215
-0.0001273003
-9.525864e-05
-6.085578e-05
-2.394061e-05
1.565237e-05
5.810754e-05
0.0001036334
0.0001524686
0.0002048888
0.0002612133
0.0003218135
0.0003871226
0.0004576474
0.0005339836
0.0006168291
0.000706965
0.0008052933
0.0009129081
0.001030987
0.001160609
0.001302948
0.001459462
0.001631613
0.00182076
0.002028012
0.002253992
0.002498479
0.002759847
0.003034294
0.003314785
0.003589658
0.003840841
0.004041723
0.004150542
0.001746203
0.002045322
0.002391947
0.002692533
0.00295941
0.003208854
0.003444149
0.003663855
0.003866123
0.004049091
0.004210836
0.004349631
0.004464237
0.004554031
0.004618971
0.004659482
0.004676367
0.004670743
0.004643983
0.004597627
0.004533296
0.004452616
0.004357186
0.004248564
0.004128257
0.003997718
0.003858345
0.003711471
0.003558369
0.003400243
0.00323823
0.003073395
0.002906725
0.002739133
0.002571448
0.002404422
0.002238729
0.002074968
0.001913671
0.001755307
0.001600294
0.001448996
0.001301739
0.001158809
0.001020457
0.0008869004
0.0007583251
0.0006348849
0.0005167017
0.0004038661
0.0002964381
0.0001944488
9.79027e-05
6.780326e-06
-7.895879e-05
-0.0001593735
-0.0002345386
-0.0003045428
-0.0003694876
-0.0004294861
-0.0004846623
-0.0005351502
-0.0005810926
-0.0006226389
-0.0006599419
-0.0006931565
-0.0007224385
-0.0007479466
-0.0007698397
-0.0007882715
-0.0008034089
-0.0008154392
-0.0008245604
-0.0008309743
-0.0008349228
-0.000836713
-0.0008365694
-0.0008347235
-0.0008313413
-0.0008265709
-0.0008205651
-0.0008134504
-0.0008053225
-0.0007962891
-0.0007865255
-0.0007761809
-0.0007653725
-0.0007541957
-0.0007427306
-0.0007310449
-0.0007191941
-0.00070722
-0.0006951498
-0.0006829988
-0.0006707732
-0.000658468
-0.0006460654
-0.000633533
-0.000620825
-0.0006078828
-0.0005946353
-0.0005809995
-0.0005668809
-0.0005521748
-0.0005367675
-0.0005205377
-0.000503358
-0.0004850961
-0.0004656163
-0.000444781
-0.0004224526
-0.0003984932
-0.0003727659
-0.0003451341
-0.0003154613
-0.0002836098
-0.0002494393
-0.0002128038
-0.0001735492
-0.0001315098
-8.650348e-05
-3.832639e-05
1.325313e-05
6.850176e-05
0.0001277298
0.0001913002
0.0002596383
0.0003332446
0.0004127084
0.0004987243
0.0005921099
0.0006938187
0.00080497
0.0009269292
0.001061149
0.001209077
0.001372362
0.001552845
0.001752562
0.001973578
0.002217714
0.002486243
0.002779442
0.003095857
0.003431226
0.003776999
0.004118409
0.004432055
0.004683301
0.004818177
0.001908781
0.002235773
0.00261479
0.002943722
0.00323617
0.003509992
0.003768776
0.004010878
0.004234138
0.004436347
0.004615219
0.004768721
0.004895421
0.004994623
0.005066297
0.005110922
0.005129386
0.005122933
0.005093103
0.005041636
0.004970348
0.004881056
0.004775538
0.004655523
0.004522686
0.004378644
0.004224947
0.004063076
0.003894442
0.003720381
0.00354215
0.003360926
0.003177802
0.002993782
0.002809778
0.002626614
0.002445025
0.002265662
0.002089102
0.001915852
0.001746357
0.001581013
0.001420166
0.001264124
0.001113157
0.0009674993
0.0008273523
0.0006928812
0.0005642174
0.0004414577
0.0003246652
0.0002138714
0.0001090791
1.026514e-05
-8.261568e-05
-0.0001696281
-0.0002508534
-0.0003263878
-0.000396341
-0.000460836
-0.0005200082
-0.0005740053
-0.0006229849
-0.0006671117
-0.0007065527
-0.0007414747
-0.0007720424
-0.000798425
-0.0008207846
-0.0008392846
-0.0008541077
-0.0008654766
-0.0008736278
-0.0008788233
-0.0008814124
-0.0008818373
-0.0008802719
-0.0008767412
-0.0008713276
-0.0008643068
-0.0008559305
-0.000846394
-0.0008358583
-0.0008244784
-0.0008124173
-0.0007998188
-0.0007868032
-0.0007734725
-0.0007599133
-0.0007461983
-0.0007323866
-0.0007185232
-0.0007046388
-0.0006907499
-0.0006768617
-0.0006629659
-0.00064904
-0.0006350465
-0.0006209323
-0.0006066289
-0.0005920545
-0.0005771141
-0.0005616996
-0.0005456913
-0.0005289593
-0.0005113654
-0.0004927642
-0.0004730056
-0.0004519359
-0.0004293997
-0.0004052417
-0.0003793072
-0.0003514426
-0.0003214962
-0.0002893165
-0.0002547518
-0.0002176476
-0.0001778443
-0.0001351737
-8.945447e-05
-4.048676e-05
1.195396e-05
6.812462e-05
0.0001283234
0.0001928988
0.0002622609
0.0003368955
0.0004173785
0.0005043932
0.0005987516
0.0007014168
0.0008135277
0.000936431
0.001071722
0.001221246
0.001387169
0.001571855
0.001777506
0.002006849
0.002262854
0.002548373
0.002865693
0.003215929
0.003598037
0.004007337
0.004433435
0.004857528
0.005249158
0.005563047
0.00572898
0.002069653
0.002424337
0.002835723
0.003193256
0.003511803
0.00381079
0.0040941
0.004359867
0.00460559
0.004828654
0.005026346
0.005196263
0.005336725
0.005446929
0.005526817
0.005576877
0.005598032
0.005591613
0.005559313
0.005503058
0.005424856
0.005326711
0.005210578
0.005078366
0.004931927
0.004773049
0.004603449
0.004424768
0.004238565
0.004046322
0.003849431
0.003649198
0.003446833
0.003243449
0.00304006
0.002837574
0.002636804
0.002438468
0.0022432
0.002051555
0.001864023
0.001681036
0.001502977
0.001330186
0.001162961
0.001001564
0.0008462197
0.0006971151
0.0005543985
0.0004181801
0.0002885326
0.0001654937
4.906968e-05
-6.076083e-05
-0.0001640433
-0.0002608435
-0.000351245
-0.0004353467
-0.0005132632
-0.000585124
-0.0006510739
-0.0007112724
-0.0007658918
-0.0008151117
-0.0008591102
-0.0008980588
-0.0009321221
-0.0009614736
-0.0009862859
-0.001006728
-0.001022978
-0.001035285
-0.001043996
-0.001049471
-0.001052121
-0.001052248
-0.001050003
-0.001045491
-0.001038918
-0.001030605
-0.001020831
-0.00100982
-0.0009977613
-0.0009848248
-0.0009711709
-0.0009569463
-0.0009422802
-0.0009272846
-0.000912056
-0.0008966755
-0.0008812092
-0.0008657084
-0.0008502095
-0.0008347298
-0.0008192746
-0.0008038339
-0.0007883821
-0.0007728779
-0.0007572612
-0.0007414541
-0.0007253655
-0.0007088888
-0.0006919032
-0.0006742746
-0.0006558573
-0.000636496
-0.0006160278
-0.0005942841
-0.0005710928
-0.0005462805
-0.0005196737
-0.0004911005
-0.0004603913
-0.0004273785
-0.0003918966
-0.0003537799
-0.0003128609
-0.000268967
-0.0002219162
-0.000171512
-0.0001175372
-5.974643e-05
2.143032e-06
6.846086e-05
0.0001395973
0.0002160151
0.0002982666
0.0003870128
0.0004830445
0.0005873102
0.0007009462
0.0008253127
0.0009620362
0.001113062
0.001280704
0.001467759
0.001677316
0.001912531
0.002177052
0.002475027
0.002810705
0.003187904
0.003609088
0.004074006
0.004577654
0.005107345
0.005638934
0.006132423
0.006528198
0.006734136
0.002228167
0.00261024
0.003053815
0.003440059
0.003785104
0.004109939
0.004418749
0.004709447
0.004979168
0.005224852
0.005443294
0.00563165
0.005787942
0.005911213
0.006001342
0.006058775
0.00608442
0.006079668
0.006046349
0.00598658
0.005902573
0.005796528
0.005670604
0.005526913
0.005367511
0.005194384
0.005009436
0.004814484
0.004611255
0.004401385
0.004186415
0.003967784
0.003746832
0.003524787
0.003302763
0.003081763
0.002862676
0.002646286
0.002433283
0.002224268
0.002019771
0.001820257
0.001626141
0.001437788
0.001255524
0.001079632
0.0009103596
0.0007479093
0.0005924441
0.000444084
0.000302908
0.0001689566
4.223708e-05
-7.727302e-05
-0.0001896211
-0.0002948756
-0.000393123
-0.0004844656
-0.0005690234
-0.0006469338
-0.0007183528
-0.0007834554
-0.0008424306
-0.0008954719
-0.0009427598
-0.0009844569
-0.001020739
-0.001051795
-0.001077803
-0.001098909
-0.001115327
-0.001127429
-0.001135606
-0.001140288
-0.001141944
-0.001140524
-0.001136307
-0.001129656
-0.001120896
-0.001110333
-0.001098244
-0.001084868
-0.001070414
-0.001055071
-0.001039014
-0.001022398
-0.001005364
-0.0009880359
-0.0009705182
-0.0009529006
-0.0009352554
-0.0009176389
-0.0009000913
-0.0008826333
-0.0008652702
-0.0008479899
-0.0008307644
-0.0008135476
-0.0007962716
-0.0007788512
-0.0007611844
-0.0007431516
-0.000724617
-0.0007054298
-0.0006854259
-0.0006644304
-0.00064226
-0.0006187252
-0.0005936329
-0.0005667887
-0.0005379993
-0.0005070734
-0.0004738233
-0.0004380649
-0.0003996169
-0.0003582994
-0.0003139312
-0.0002663262
-0.0002152885
-0.0001606066
-0.0001020457
-3.933917e-05
2.782233e-05
9.98032e-05
0.0001770371
0.0002600425
0.0003494449
0.0004459994
0.0005506171
0.0006644018
0.0007886904
0.0009251014
0.001075593
0.001242535
0.001428784
0.001637782
0.001873623
0.002141014
0.002444702
0.002790412
0.003184348
0.003632464
0.00413929
0.004705995
0.005327488
0.005988252
0.006657002
0.007280693
0.007780279
0.008034078
0.002383544
0.002792561
0.003267968
0.003682855
0.004054636
0.004405856
0.004741028
0.005057866
0.005353146
0.005623332
0.005864669
0.006073793
0.006248342
0.006387136
0.006489916
0.006557002
0.006589212
0.006587941
0.00655514
0.006493106
0.006404254
0.006290989
0.006155687
0.006000684
0.005828261
0.005640619
0.005439864
0.005228003
0.005006944
0.004778488
0.004544335
0.004306074
0.004065182
0.003823018
0.003580811
0.003339665
0.003100558
0.00286435
0.002631792
0.002403541
0.00218017
0.001962186
0.001750036
0.00154412
0.001344794
0.001152369
0.0009671155
0.0007892603
0.0006189834
0.0004564183
0.0003016527
0.0001547333
1.567075e-05
-0.0001155554
-0.0002389917
-0.0003547061
-0.0004627843
-0.000563329
-0.0006564627
-0.00074233
-0.0008210983
-0.0008929547
-0.0009581006
-0.001016737
-0.001069026
-0.001115138
-0.00115527
-0.001189626
-0.001218352
-0.001241549
-0.001259589
-0.001272888
-0.00128184
-0.001286894
-0.001288374
-0.001286382
-0.001281359
-0.001273745
-0.001263895
-0.001252121
-0.001238713
-0.00122393
-0.001208005
-0.001191145
-0.001173539
-0.001155355
-0.001136746
-0.001117844
-0.001098767
-0.001079612
-0.001060458
-0.001041366
-0.001022382
-0.001003532
-0.0009848225
-0.0009662378
-0.0009477477
-0.0009293014
-0.0009108262
-0.0008922286
-0.000873395
-0.0008541922
-0.0008344683
-0.0008140545
-0.0007927671
-0.0007704102
-0.0007467781
-0.0007216587
-0.0006948361
-0.0006660936
-0.000635216
-0.0006019916
-0.0005662139
-0.000527681
-0.0004861958
-0.0004415638
-0.0003935904
-0.0003420763
-0.0002868121
-0.0002275717
-0.0001641028
-9.611769e-05
-2.32801e-05
5.480886e-05
0.0001386282
0.0002287575
0.0003259026
0.0004309227
0.0005448664
0.000669016
0.0008049385
0.0009545555
0.001120221
0.00130482
0.001511884
0.00174573
0.002011631
0.002315864
0.002665117
0.003067285
0.003531275
0.004066085
0.004679311
0.005374522
0.006146981
0.006977648
0.007825507
0.008619331
0.009253336
0.009565418
0.002534918
0.002970276
0.003476951
0.003920215
0.004318763
0.004696712
0.00505894
0.00540301
0.005725375
0.006022024
0.006288615
0.006521176
0.006716859
0.006874153
0.006992549
0.007072127
0.007113501
0.007117995
0.007087639
0.00702491
0.006932444
0.006812887
0.00666887
0.006503002
0.006317826
0.006115787
0.00589922
0.005670339
0.005431248
0.005183934
0.004930268
0.004672006
0.004410781
0.004148095
0.003885308
0.003623637
0.003364157
0.003107812
0.00285542
0.002607692
0.002365249
0.002128635
0.001898333
0.001674772
0.001458338
0.00124937
0.00104816
0.0008549568
0.0006699555
0.000493301
0.0003250875
0.0001653647
1.414478e-05
-0.0001285927
-0.0002628953
-0.0003888322
-0.0005064894
-0.0006159704
-0.0007174014
-0.0008109342
-0.0008967438
-0.000975026
-0.001045992
-0.001109838
-0.001166724
-0.001216837
-0.001260398
-0.001297615
-0.001328578
-0.001353457
-0.001372676
-0.001386672
-0.001395829
-0.001400542
-0.001401065
-0.001397838
-0.001391377
-0.001382135
-0.001370495
-0.001356802
-0.001341367
-0.001324474
-0.001306377
-0.001287303
-0.001267458
-0.001247027
-0.001226174
-0.001205046
-0.001183772
-0.00116246
-0.001141197
-0.001120052
-0.001099076
-0.001078302
-0.001057735
-0.001037362
-0.001017153
-0.0009970519
-0.0009769812
-0.0009568382
-0.0009364978
-0.000915812
-0.0008946122
-0.00087271
-0.0008499003
-0.0008259639
-0.0008006707
-0.0007737836
-0.0007450614
-0.0007142627
-0.0006811485
-0.0006454853
-0.0006070457
-0.0005656096
-0.0005209635
-0.0004728982
-0.0004212057
-0.0003656742
-0.0003060817
-0.000242188
-0.0001737246
-0.000100383
-2.180034e-05
6.245785e-05
0.000152918
0.0002502234
0.0003551657
0.0004687196
0.0005920837
0.0007267396
0.0008745157
0.00103768
0.00121905
0.001422124
0.001651248
0.001911819
0.002210516
0.002555568
0.002956405
0.003423849
0.003970548
0.004609886
0.005354008
0.006210256
0.007175045
0.008224961
0.009305535
0.01031971
0.01112456
0.01150233
0.002681377
0.003142301
0.003679461
0.004150605
0.004575721
0.004980497
0.005370238
0.005742436
0.006093289
0.006418362
0.006712714
0.006971692
0.007191813
0.007371079
0.007508588