/*--------------------------------*- C++ -*----------------------------------*\
| =========                 |                                                 |
| \\      /  F ield         | OpenFOAM: The Open Source CFD Toolbox           |
|  \\    /   O peration     | Version:  2106                                  |
|   \\  /    A nd           | Website:  www.openfoam.com                      |
|    \\/     M anipulation  |                                                 |
\*---------------------------------------------------------------------------*/
FoamFile
{
    version     2.0;
    format      ascii;
    arch        "LSB;label=32;scalar=64";
    class       volScalarField;
    location    "90";
    object      p;
}
// * * * * * * * * * * * * * * * * * * * * * * * * * * * * * * * * * * * * * //

dimensions      [ 0 2 -2 0 0 0 0 ];

internalField   nonuniform List<scalar> 
300000
(
0.0001924983
0.0002821367
0.0003889547
0.000492794
0.0005946576
0.0006959462
0.0007965925
0.000896134
0.0009940866
0.001089952
0.001183205
0.001273305
0.001359726
0.001441977
0.001519624
0.001592304
0.00165973
0.001721692
0.001778058
0.001828764
0.00187381
0.00191325
0.001947182
0.001975742
0.001999096
0.002017434
0.002030962
0.002039901
0.00204448
0.002044936
0.002041507
0.002034433
0.002023954
0.002010305
0.001993717
0.001974418
0.001952626
0.001928555
0.001902409
0.00187439
0.001844685
0.001813479
0.001780947
0.001747261
0.001712581
0.001677066
0.001640863
0.001604115
0.00156696
0.00152953
0.001491949
0.001454323
0.001416777
0.001379407
0.001342308
0.001305575
0.001269286
0.001233517
0.001198342
0.00116382
0.001130025
0.001096989
0.001064768
0.001033405
0.00100294
0.0009733932
0.0009448019
0.0009171857
0.0008905674
0.0008649473
0.000840356
0.0008167939
0.0007942573
0.0007727424
0.0007522602
0.0007328172
0.0007143767
0.0006969497
0.0006805159
0.0006650831
0.0006505788
0.0006370454
0.0006245031
0.000612826
0.0006020441
0.0005921674
0.0005831781
0.0005749501
0.0005676024
0.0005611049
0.0005554786
0.0005505887
0.0005465048
0.0005432193
0.000540717
0.0005388876
0.0005380014
0.0005380619
0.000538694
0.0005403385
0.0005428417
0.0005462415
0.0005506101
0.0005560325
0.0005621192
0.0005695209
0.0005781134
0.0005877596
0.0005989278
0.0006117518
0.000625859
0.0006408815
0.0006580453
0.000676998
0.0006980685
0.0007214124
0.0007465913
0.0007743719
0.0008041287
0.0008374242
0.0008753877
0.0009148118
0.0009569449
0.001005527
0.001061472
0.001117347
0.00118048
0.00125444
0.001337719
0.001430983
0.001532409
0.001655469
0.001798844
0.001970559
0.002177912
0.002442432
0.002765123
0.003218637
0.003827702
0.004717445
0.006088562
0.008290838
0.01200138
0.01864063
0.03103449
0.05464643
0.09523971
0.1790675
0.174759
0.05863426
0.0003926377
0.0004805455
0.0005831605
0.0006717626
0.0007493595
0.0008204837
0.0008862272
0.0009464966
0.001001125
0.001049946
0.001092748
0.001129299
0.001159402
0.00118294
0.001199891
0.001210335
0.001214444
0.001212477
0.001204762
0.001191678
0.00117364
0.001151086
0.001124459
0.001094207
0.001060764
0.001024556
0.0009859878
0.0009454488
0.0009033056
0.0008599022
0.0008155602
0.0007705785
0.0007252325
0.0006797749
0.0006344353
0.0005894194
0.0005449124
0.0005010794
0.0004580668
0.0004160027
0.0003749968
0.0003351465
0.0002965364
0.0002592374
0.0002233075
0.0001887963
0.0001557424
0.0001241783
9.412629e-05
6.559967e-05
3.860276e-05
1.313492e-05
-1.080564e-05
-3.324044e-05
-5.418747e-05
-7.366567e-05
-9.170517e-05
-0.0001083425
-0.0001236136
-0.0001375545
-0.0001502021
-0.000161608
-0.0001718128
-0.0001808599
-0.0001887958
-0.0001956733
-0.0002015363
-0.0002064315
-0.0002104076
-0.0002135167
-0.000215795
-0.0002173049
-0.0002180771
-0.0002181636
-0.0002176223
-0.0002164807
-0.0002147704
-0.0002125434
-0.0002098577
-0.0002067461
-0.0002032298
-0.0001993332
-0.0001951485
-0.0001906964
-0.0001859397
-0.0001809333
-0.0001757264
-0.0001703664
-0.000164799
-0.0001590711
-0.0001532239
-0.0001472807
-0.0001411546
-0.0001348972
-0.0001285242
-0.0001220097
-0.0001152916
-0.0001084607
-0.0001015263
-9.431128e-05
-8.68474e-05
-7.918956e-05
-7.132651e-05
-6.304467e-05
-5.438015e-05
-4.526891e-05
-3.586155e-05
-2.570878e-05
-1.506693e-05
-3.892723e-06
7.90763e-06
2.04227e-05
3.391383e-05
4.817793e-05
6.360636e-05
8.015636e-05
9.757594e-05
0.000116361
0.0001368082
0.0001591333
0.0001836355
0.000208997
0.0002364909
0.0002682451
0.0003044621
0.0003424688
0.0003859394
0.0004356538
0.0004920848
0.0005581268
0.0006355271
0.0007296847
0.0008444046
0.0009868489
0.001171197
0.001417642
0.001750474
0.002226867
0.002926549
0.00400908
0.005743663
0.008629449
0.01363077
0.02259384
0.03895221
0.06904235
0.1215096
0.2274435
0.22753
0.07124097
0.0005741787
0.0006820254
0.0008144149
0.0009358726
0.001048767
0.001158116
0.001264684
0.001367694
0.001466364
0.001560011
0.001647945
0.001729493
0.001804065
0.001871203
0.001930593
0.001982066
0.002025588
0.002061242
0.002089213
0.002109762
0.002123211
0.002129925
0.002130295
0.002124731
0.002113651
0.002097476
0.002076629
0.002051523
0.002022565
0.001990152
0.001954666
0.001916475
0.001875932
0.001833371
0.001789107
0.001743436
0.001696633
0.001648956
0.001600642
0.001551911
0.001502968
0.001454
0.00140518
0.001356667
0.001308608
0.001261135
0.001214373
0.00116843
0.001123404
0.001079386
0.001036454
0.0009946764
0.0009541036
0.0009147901
0.0008767722
0.0008400825
0.0008047491
0.0007707867
0.0007381999
0.000706996
0.0006771791
0.0006487526
0.0006216962
0.0005960002
0.0005716541
0.0005486391
0.0005269258
0.0005064964
0.0004873264
0.0004693863
0.0004526485
0.0004370695
0.0004226484
0.0004093466
0.0003970859
0.0003858448
0.0003756287
0.0003663929
0.0003580868
0.0003506772
0.0003441193
0.0003383713
0.0003333996
0.0003292057
0.0003257701
0.0003230279
0.0003209379
0.0003195145
0.0003186968
0.0003184991
0.0003189169
0.0003200256
0.0003217555
0.0003240506
0.0003269456
0.0003304851
0.0003346225
0.0003393944
0.0003449876
0.0003513752
0.0003584945
0.0003664841
0.0003752935
0.0003850913
0.0003959571
0.0004077313
0.00042055
0.000434986
0.000450818
0.0004680521
0.0004867358
0.0005070337
0.0005290317
0.0005531891
0.0005795116
0.000608607
0.0006401273
0.0006740048
0.0007105932
0.0007506391
0.0007949247
0.0008436591
0.0008963979
0.0009542235
0.001018678
0.001090699
0.001169626
0.001258476
0.001360867
0.001479063
0.00161578
0.001775316
0.001968339
0.002205685
0.002506729
0.002896285
0.003415505
0.004131682
0.005168629
0.006730174
0.009180476
0.01318319
0.01997234
0.0318451
0.05302529
0.09105281
0.1560033
0.2701722
0.2635568
0.1038967
0.0007483645
0.0008815109
0.001041051
0.001183532
0.001311882
0.001432235
0.001545689
0.001651494
0.001748888
0.001837235
0.001915911
0.001984325
0.002042012
0.002088684
0.00212425
0.002148804
0.002162612
0.002166082
0.002159739
0.002144191
0.002120106
0.002088182
0.002049132
0.002003669
0.001952492
0.001896285
0.001835706
0.00177139
0.001703936
0.001633915
0.001561863
0.001488281
0.001413638
0.001338363
0.001262855
0.001187472
0.001112539
0.001038349
0.0009651634
0.000893217
0.0008227181
0.0007538485
0.0006867686
0.0006216205
0.0005585273
0.000497593
0.0004389058
0.0003825376
0.0003285484
0.0002769835
0.0002278738
0.0001812341
0.0001370681
9.537705e-05
5.614165e-05
1.933254e-05
-1.507869e-05
-4.712836e-05
-7.686778e-05
-0.0001043526
-0.0001296364
-0.0001527738
-0.0001738369
-0.0001928934
-0.0002100074
-0.0002252499
-0.0002387018
-0.0002504344
-0.0002605184
-0.0002690306
-0.0002760465
-0.0002816484
-0.0002859087
-0.0002888872
-0.0002906692
-0.0002913371
-0.0002909615
-0.0002895945
-0.0002873039
-0.0002841685
-0.0002802901
-0.0002756936
-0.0002704332
-0.0002646029
-0.0002582304
-0.0002513552
-0.0002440348
-0.0002362925
-0.0002281949
-0.0002197276
-0.0002109182
-0.0002017884
-0.0001923419
-0.0001825907
-0.0001725553
-0.0001621985
-0.0001514891
-0.0001404217
-0.0001289034
-0.0001169765
-0.000104493
-9.155505e-05
-7.814706e-05
-6.412265e-05
-4.922562e-05
-3.360538e-05
-1.695709e-05
4.368533e-07
1.924294e-05
3.925455e-05
6.033291e-05
8.26848e-05
0.0001062874
0.0001321383
0.0001598097
0.000189676
0.0002216093
0.0002558713
0.0002926375
0.0003327
0.0003764657
0.0004241136
0.0004762526
0.0005328856
0.0005960661
0.0006675843
0.0007463999
0.0008357346
0.000939359
0.001059425
0.001200602
0.001369116
0.001574158
0.001830412
0.002161192
0.002595101
0.003181782
0.004003539
0.005202478
0.007017145
0.009868024
0.01450661
0.02229974
0.03573196
0.05921044
0.1002275
0.1679888
0.2769057
0.2672205
0.1181682
0.0009184661
0.001078547
0.001267457
0.001434443
0.001584589
0.001725957
0.001860223
0.001986704
0.002104583
0.002213108
0.00231149
0.002398968
0.002474915
0.002538921
0.002590808
0.002630622
0.002658602
0.002675155
0.002680815
0.002676211
0.002662037
0.002639018
0.002607891
0.00256939
0.00252424
0.002473145
0.002416789
0.002355831
0.0022909
0.002222596
0.002151487
0.002078112
0.002002974
0.001926543
0.001849254
0.001771505
0.00169366
0.00161605
0.001538976
0.001462708
0.001387493
0.00131355
0.001241075
0.001170245
0.001101219
0.001034132
0.0009691071
0.0009062481
0.0008456438
0.0007873654
0.0007314689
0.0006779968
0.0006269756
0.0005784191
0.0005323306
0.000488699
0.0004475051
0.0004087286
0.0003723368
0.0003382821
0.0003065146
0.0002769878
0.000249651
0.00022444
0.000201289
0.0001801384
0.000160919
0.0001435568
0.0001279836
0.0001141279
0.0001019172
9.128636e-05
8.214898e-05
7.44298e-05
6.808183e-05
6.303297e-05
5.917633e-05
5.644395e-05
5.478943e-05
5.41494e-05
5.443171e-05
5.557792e-05
5.75149e-05
6.01742e-05
6.35281e-05
6.755368e-05
7.221017e-05
7.743834e-05
8.316676e-05
8.942438e-05
9.619437e-05
0.0001034398
0.0001112378
0.0001195592
0.00012845
0.0001378402
0.0001477593
0.0001582826
0.0001694997
0.0001813733
0.0001941374
0.0002077529
0.0002221798
0.0002375746
0.0002541898
0.0002721242
0.00029133
0.0003116818
0.0003339309
0.0003576768
0.0003834841
0.0004109939
0.0004407135
0.0004729073
0.0005076098
0.0005451772
0.0005860391
0.0006302156
0.0006780471
0.0007295628
0.0007859353
0.0008477451
0.0009151904
0.0009893533
0.001071804
0.001163595
0.00126599
0.001380923
0.001511937
0.001664073
0.001842465
0.002053815
0.00230854
0.002623448
0.003023142
0.003544674
0.004242939
0.005208982
0.006596188
0.008666345
0.0118712
0.01700497
0.02548467
0.03982689
0.06436234
0.1061878
0.1734733
0.2762405
0.2664202
0.1319661
0.001086255
0.001273865
0.001493271
0.001685469
0.001857166
0.002017959
0.002169698
0.002311464
0.002442187
0.002560882
0.00266655
0.002758259
0.00283528
0.002897178
0.002943823
0.002975367
0.002992207
0.002994937
0.00298431
0.002961191
0.002926515
0.002881252
0.002826377
0.002762856
0.002691636
0.002613635
0.002529741
0.002440803
0.00234763
0.002250989
0.002151606
0.002050162
0.00194729
0.001843577
0.001739561
0.001635732
0.001532534
0.001430365
0.001329582
0.001230504
0.001133415
0.001038566
0.0009461786
0.0008564467
0.00076954
0.0006856051
0.0006047659
0.0005271255
0.0004527668
0.0003817522
0.0003141249
0.0002499113
0.0001891193
0.0001317385
7.774853e-05
2.71176e-05
-2.020363e-05
-6.427052e-05
-0.0001051413
-0.0001428888
-0.000177598
-0.0002093516
-0.0002382266
-0.0002643199
-0.0002877377
-0.0003085714
-0.0003269171
-0.0003428839
-0.0003565765
-0.0003680964
-0.0003775452
-0.0003850249
-0.0003906381
-0.0003945081
-0.0003967309
-0.0003973981
-0.0003965999
-0.0003944676
-0.0003910961
-0.0003865763
-0.000381007
-0.0003745028
-0.0003671464
-0.0003590154
-0.0003501502
-0.0003406571
-0.0003305688
-0.0003199266
-0.0003088132
-0.0002972591
-0.0002852482
-0.000272798
-0.0002598907
-0.0002466329
-0.0002328646
-0.000218694
-0.0002041335
-0.0001890639
-0.0001734069
-0.000157098
-0.0001400792
-0.0001223849
-0.000103943
-8.453162e-05
-6.420482e-05
-4.263857e-05
-1.986163e-05
4.224412e-06
2.994224e-05
5.718423e-05
8.66438e-05
0.0001173391
0.0001505364
0.0001858932
0.0002240748
0.0002651227
0.0003094282
0.0003570554
0.0004086271
0.0004638563
0.0005237071
0.0005896335
0.0006616587
0.0007407393
0.0008281167
0.0009253206
0.001034872
0.001158131
0.001298074
0.001461546
0.001653768
0.001882632
0.002159924
0.00250297
0.002938623
0.003507617
0.004270068
0.005323312
0.006826282
0.009051692
0.01246577
0.01787595
0.02669789
0.0414032
0.06615597
0.1076457
0.1733413
0.2714716
0.2637509
0.1448484
0.001252666
0.00146806
0.00171871
0.001937061
0.002131403
0.002313085
0.002484386
0.002644358
0.002791859
0.002925812
0.003045103
0.003148695
0.0032358
0.003305969
0.003359113
0.00339546
0.003415507
0.003419968
0.003409726
0.003385783
0.003349206
0.003301089
0.00324252
0.003174567
0.00309827
0.003014632
0.002924616
0.002829143
0.00272909
0.002625284
0.002518509
0.002409496
0.00229893
0.002187442
0.00207561
0.001963961
0.001852969
0.001743061
0.00163462
0.001527985
0.001423462
0.001321319
0.001221797
0.001125105
0.001031428
0.0009409252
0.0008537353
0.0007699716
0.0006897269
0.000613073
0.0005400593
0.000470715
0.000405052
0.0003430634
0.0002847258
0.000230006
0.0001788562
0.0001312135
8.701342e-05
4.618542e-05
8.6402e-06
-2.571756e-05
-5.697252e-05
-8.522546e-05
-0.0001105873
-0.0001331631
-0.0001530557
-0.0001703755
-0.0001852391
-0.00019776
-0.0002080438
-0.0002162127
-0.0002223675
-0.0002266153
-0.0002290984
-0.0002299311
-0.0002291823
-0.0002269816
-0.0002234734
-0.0002187543
-0.0002129562
-0.0002061795
-0.000198486
-0.0001899985
-0.0001807615
-0.0001708382
-0.0001603313
-0.0001492564
-0.0001376375
-0.0001255575
-0.0001130535
-0.0001000743
-8.658295e-05
-7.267062e-05
-5.825633e-05
-4.328836e-05
-2.778341e-05
-1.171019e-05
5.026076e-06
2.258629e-05
4.095439e-05
6.030727e-05
8.052285e-05
0.0001018625
0.0001244447
0.0001484612
0.000174158
0.0002014857
0.0002306302
0.0002617715
0.0002952838
0.0003308799
0.0003689239
0.0004098965
0.0004542761
0.0005019561
0.000553303
0.0006088219
0.0006687567
0.000733683
0.0008038281
0.0008806578
0.0009646204
0.001056605
0.001158022
0.001271203
0.001398701
0.001541002
0.001702433
0.001889374
0.002108468
0.002368219
0.002681244
0.003065214
0.003548513
0.004174086
0.005004276
0.006139751
0.007742959
0.01008487
0.01362915
0.01917404
0.02810004
0.04279284
0.0672226
0.1077313
0.1714188
0.2660876
0.2611274
0.1563539
0.001418158
0.001661464
0.001943849
0.002189078
0.002406868
0.00261025
0.002801839
0.00298053
0.003144958
0.003293798
0.003425682
0.003539346
0.003633845
0.003708656
0.00376369
0.003799229
0.003815868
0.003814453
0.003796029
0.003761777
0.003712951
0.003650833
0.003576694
0.003491779
0.0033973
0.003294427
0.003184287
0.003067956
0.002946462
0.002820777
0.002691819
0.002560449
0.00242747
0.002293623
0.002159587
0.002025976
0.001893347
0.001762195
0.001632966
0.001506053
0.001381807
0.001260538
0.001142521
0.001027997
0.0009171745
0.0008102363
0.0007073379
0.0006086076
0.0005141473
0.0004240348
0.0003383225
0.0002570379
0.0001801875
0.0001077592
3.971986e-05
-2.397808e-05
-8.339224e-05
-0.0001385981
-0.0001896816
-0.0002367291
-0.000279843
-0.0003191397
-0.0003547295
-0.0003867334
-0.0004152733
-0.0004404854
-0.0004625001
-0.0004814428
-0.0004974512
-0.0005106659
-0.0005212137
-0.0005292321
-0.0005348669
-0.0005382335
-0.0005394845
-0.000538777
-0.0005362352
-0.0005319762
-0.0005261835
-0.0005190173
-0.0005106083
-0.0005011026
-0.0004905627
-0.0004791201
-0.0004669006
-0.0004538404
-0.0004401179
-0.000425782
-0.0004108299
-0.0003953199
-0.0003793485
-0.0003628988
-0.0003459631
-0.0003285451
-0.0003107105
-0.000292322
-0.0002734333
-0.0002540507
-0.000234006
-0.0002132698
-0.0001917629
-0.0001691912
-0.0001457154
-0.0001212765
-9.551768e-05
-6.831154e-05
-3.962494e-05
-9.198398e-06
2.327689e-05
5.776848e-05
9.441481e-05
0.000133725
0.0001753135
0.0002197284
0.0002679098
0.0003198426
0.0003754453
0.0004352866
0.0004999955
0.0005701295
0.0006457824
0.0007285538
0.0008186458
0.0009174651
0.001026566
0.001148194
0.00128411
0.001437555
0.001611993
0.001812104
0.002045999
0.002324733
0.002660336
0.003071433
0.003586696
0.004248527
0.005122457
0.00631029
0.00797288
0.01037571
0.01396946
0.01952693
0.0283784
0.04280877
0.06660672
0.1058594
0.1675945
0.2599578
0.258159
0.1663146
0.001582872
0.001854147
0.002168609
0.00244132
0.002683347
0.002909367
0.003122342
0.003321019
0.003503819
0.003669188
0.003815521
0.003941364
0.004045652
0.004127841
0.004187883
0.004226159
0.004243386
0.004240562
0.004218907
0.004179786
0.004124641
0.004054926
0.003972074
0.00387748
0.003772495
0.00365842
0.003536505
0.003407942
0.003273864
0.003135344
0.002993393
0.002848957
0.002702914
0.002556076
0.002409182
0.0022629
0.00211783
0.001974507
0.001833408
0.001694954
0.001559518
0.00142743
0.001298981
0.001174427
0.001053993
0.0009378712
0.0008262274
0.0007191993
0.0006168948
0.0005193941
0.0004267518
0.0003389954
0.0002561274
0.0001781308
0.000104969
3.658631e-05
-2.708356e-05
-8.612059e-05
-0.0001406229
-0.0001906914
-0.0002364338
-0.0002779742
-0.0003154436
-0.0003489805
-0.0003787093
-0.000404785
-0.0004273554
-0.0004465594
-0.0004625473
-0.0004754707
-0.0004854687
-0.0004926916
-0.0004973051
-0.0004994509
-0.0004992884
-0.0004969913
-0.0004927122
-0.0004866105
-0.0004788929
-0.0004697422
-0.0004593157
-0.0004478298
-0.0004353598
-0.0004220172
-0.0004079367
-0.000393055
-0.0003774755
-0.0003612896
-0.0003444881
-0.0003270874
-0.0003091672
-0.000290738
-0.0002717861
-0.0002523124
-0.0002323704
-0.0002118848
-0.0001908754
-0.0001692913
-0.0001470449
-0.0001240505
-0.0001002195
-7.526508e-05
-4.932718e-05
-2.223191e-05
6.243633e-06
3.626122e-05
6.804934e-05
0.0001017997
0.0001376415
0.0001758643
0.0002166179
0.0002604899
0.0003070896
0.0003564559
0.0004100999
0.0004683638
0.0005308388
0.0005978028
0.000670086
0.0007484442
0.0008332362
0.0009253296
0.001025918
0.001135661
0.001257273
0.001391881
0.001541381
0.001710876
0.001903262
0.002122528
0.002377346
0.002679448
0.003041562
0.003482845
0.004031683
0.004730412
0.005644105
0.00687228
0.008572065
0.01099996
0.01458592
0.02006244
0.02869111
0.04264117
0.06552219
0.1031857
0.1627164
0.2531942
0.2544349
0.1752324
0.001746698
0.002045938
0.002392696
0.002693381
0.002960355
0.003209905
0.003445313
0.003665141
0.003867539
0.004050647
0.004212546
0.004351511
0.004466302
0.004556297
0.004621456
0.00466221
0.004679361
0.004674027
0.004647581
0.004601569
0.004537611
0.004457338
0.004362349
0.004254203
0.004134408
0.004004422
0.003865643
0.00371941
0.003566995
0.003409605
0.003248377
0.003084378
0.0029186
0.002751956
0.00258528
0.002419325
0.002254765
0.002092203
0.001932171
0.001775143
0.001621536
0.00147172
0.001326021
0.001184727
0.001048092
0.0009163343
0.0007896414
0.0006681692
0.0005520429
0.0004413533
0.0003361622
0.0002365026
0.0001423788
5.37713e-05
-2.935881e-05
-0.0001070713
-0.0001794413
-0.0002465543
-0.0003085149
-0.0003654405
-0.0004174502
-0.0004646752
-0.0005072645
-0.000545376
-0.0005791542
-0.0006087651
-0.0006343669
-0.0006561224
-0.0006742015
-0.0006887672
-0.000699973
-0.0007079943
-0.0007129999
-0.0007151614
-0.000714688
-0.0007117721
-0.0007065819
-0.0006993458
-0.0006903096
-0.0006796614
-0.000667595
-0.0006543054
-0.000639852
-0.0006244001
-0.0006080322
-0.0005908502
-0.0005728556
-0.0005542022
-0.0005349744
-0.0005151593
-0.0004947715
-0.0004738699
-0.0004524986
-0.0004306064
-0.0004081776
-0.0003852527
-0.0003618732
-0.00033783
-0.000313104
-0.000287683
-0.0002613485
-0.0002339357
-0.0002054906
-0.0001758462
-0.0001446772
-0.0001119885
-7.74152e-05
-4.066347e-05
-1.875624e-06
3.95434e-05
8.357889e-05
0.0001307897
0.0001813684
0.0002348062
0.0002923565
0.0003546591
0.0004217562
0.0004939232
0.000571522
0.0006553121
0.0007459016
0.0008445845
0.0009524802
0.001069668
0.001199695
0.001343584
0.001503039
0.00168379
0.001888335
0.002121368
0.00239264
0.002712226
0.00309348
0.003556674
0.004130418
0.004856183
0.005796477
0.00704795
0.008762029
0.01118112
0.01470967
0.02003288
0.02832649
0.04161893
0.0633188
0.09901777
0.1558713
0.2445431
0.2496831
0.1831008
0.001909316
0.002236438
0.0026156
0.002944638
0.00323719
0.003511126
0.003770032
0.004012264
0.004235663
0.004438022
0.004617059
0.004770743
0.004897642
0.00499706
0.005068972
0.005113859
0.00513261
0.005126469
0.00509698
0.005045884
0.004975001
0.00488615
0.00478111
0.004661611
0.004529331
0.004385889
0.004232838
0.004071664
0.003903777
0.003730515
0.003553138
0.003372824
0.00319067
0.003007681
0.002824775
0.002642775
0.00246242
0.002284361
0.002109178
0.001937379
0.001769415
0.001605681
0.001446528
0.001292265
0.001143163
0.0009994617
0.0008613609
0.0007290278
0.0006025976
0.0004821692
0.0003678056
0.0002595403
0.0001573769
6.12914e-05
-2.87608e-05
-0.0001128439
-0.0001910413
-0.0002634472
-0.0003301704
-0.00039134
-0.0004470911
-0.0004975656
-0.0005429237
-0.0005833374
-0.0006189851
-0.0006500338
-0.0006766504
-0.000699018
-0.0007173179
-0.0007317256
-0.0007424098
-0.0007495451
-0.0007533375
-0.0007539962
-0.0007517461
-0.000746834
-0.000739505
-0.0007300479
-0.0007187935
-0.0007059324
-0.0006915908
-0.0006758677
-0.0006588314
-0.0006406021
-0.0006212909
-0.0006011925
-0.0005802276
-0.0005585291
-0.0005363117
-0.00051359
-0.0004903362
-0.000466612
-0.0004424938
-0.0004179154
-0.0003928254
-0.0003672481
-0.0003412631
-0.000314636
-0.0002873073
-0.0002592841
-0.0002303703
-0.0002003134
-0.0001689869
-0.0001365391
-0.00010259
-6.677349e-05
-2.904197e-05
1.084054e-05
5.327731e-05
9.847671e-05
0.0001464125
0.0001976738
0.0002526594
0.0003110198
0.0003738077
0.0004413303
0.0005137528
0.0005923054
0.0006772288
0.0007686171
0.0008671467
0.0009744172
0.001091601
0.001218741
0.001359248
0.001514521
0.001686648
0.001880448
0.00209966
0.002349398
0.002638015
0.002976252
0.003378458
0.00386418
0.004461465
0.005210828
0.006172986
0.007440201
0.009154238
0.01154254
0.01497861
0.02008672
0.02794187
0.04039605
0.06059343
0.09373431
0.1469364
0.2324225
0.2447367
0.188813
0.002070228
0.00242505
0.002836591
0.003194237
0.003512895
0.003812004
0.004095443
0.004361349
0.00460722
0.004830443
0.005028312
0.005198421
0.005339095
0.005449529
0.005529671
0.00558001
0.00560147
0.005595385
0.005563449
0.00550759
0.005429821
0.005332147
0.005216525
0.005084865
0.004939022
0.004780786
0.004611879
0.004433942
0.00424854
0.004057153
0.003861176
0.003661918
0.003460592
0.003258315
0.003056102
0.002854864
0.002655417
0.002458479
0.002264686
0.002074597
0.001888705
0.001707444
0.001531201
0.001360316
0.00119509
0.001035788
0.0008826358
0.000735822
0.0005954965
0.0004617733
0.0003347254
0.0002143905
0.0001007764
-6.138695e-06
-0.0001064008
-0.0002000755
-0.0002872481
-0.0003680187
-0.0004424994
-0.0005108231
-0.0005731388
-0.0006296029
-0.0006803835
-0.0007256686
-0.0007656643
-0.0008005372
-0.0008304667
-0.0008556446
-0.000876255
-0.0008924861
-0.0009045318
-0.0009125779
-0.0009168352
-0.000917557
-0.0009150171
-0.0009095725
-0.0009015359
-0.0008912029
-0.0008788252
-0.0008646
-0.000848655
-0.0008311071
-0.0008121333
-0.0007918806
-0.0007704942
-0.000748255
-0.0007251892
-0.000701351
-0.0006769541
-0.000652094
-0.0006267396
-0.0006009351
-0.0005747201
-0.0005480837
-0.0005209712
-0.0004933443
-0.0004652861
-0.0004366868
-0.0004073412
-0.0003772302
-0.000346223
-0.000314078
-0.0002805594
-0.0002457942
-0.0002095242
-0.0001713263
-0.0001310311
-8.845606e-05
-4.312498e-05
5.003232e-06
5.62269e-05
0.0001110379
0.0001696512
0.0002319817
0.0002990693
0.0003712908
0.0004483608
0.0005316924
0.0006222381
0.0007198939
0.0008249548
0.0009387841
0.001063087
0.001198656
0.001347643
0.001511465
0.001694246
0.001898952
0.002130006
0.002393531
0.002696491
0.003050195
0.003469789
0.003974365
0.004590877
0.005358944
0.006336672
0.007611173
0.009315002
0.0116581
0.01497821
0.01983404
0.0271797
0.03864531
0.05700448
0.08685782
0.1349162
0.2137445
0.2423389
0.1771208
0.002228779
0.002610999
0.00305474
0.003441103
0.003786267
0.00411123
0.004420177
0.004711021
0.0049809
0.005226754
0.005445382
0.005633943
0.005790459
0.005913975
0.006004373
0.006062103
0.006088073
0.006083676
0.006050746
0.0059914
0.005907855
0.005802313
0.005676935
0.005533835
0.005375071
0.005202632
0.005018426
0.004824272
0.004621902
0.004412951
0.004198962
0.003981378
0.003761542
0.003540685
0.003319925
0.003100266
0.0028826
0.002667713
0.002456295
0.002248953
0.002046218
0.00184856
0.001656394
0.00147009
0.001289974
0.001116333
0.0009494158
0.0007894278
0.000636532
0.0004908513
0.0003524673
0.000221419
9.771438e-05
-1.86681e-05
-0.0001277768
-0.0002296811
-0.0003244687
-0.0004122464
-0.0004931314
-0.0005672599
-0.0006347925
-0.0006959058
-0.0007507821
-0.0007996278
-0.0008426616
-0.000880053
-0.000911981
-0.000938642
-0.0009602519
-0.0009770169
-0.0009891276
-0.0009967653
-0.001000213
-0.0009998071
-0.0009958671
-0.0009887918
-0.0009790241
-0.0009667366
-0.0009520362
-0.0009351607
-0.0009163317
-0.00089583
-0.0008738424
-0.000850557
-0.0008262628
-0.000801008
-0.0007749993
-0.00074827
-0.0007209469
-0.0006931705
-0.0006649626
-0.0006363327
-0.0006072964
-0.0005778829
-0.0005480405
-0.0005177647
-0.0004869832
-0.0004556718
-0.0004237078
-0.0003909825
-0.0003572843
-0.0003224416
-0.0002863071
-0.00024872
-0.0002094514
-0.0001682951
-0.000124969
-7.910075e-05
-3.02588e-05
2.136299e-05
7.639836e-05
0.0001352946
0.0001981205
0.0002653789
0.0003374289
0.0004145898
0.0004974403
0.0005865901
0.0006830474
0.000787404
0.0009000583
0.001021716
0.001154223
0.001299167
0.001457368
0.001631822
0.001825781
0.002042195
0.002286087
0.002563134
0.002881549
0.003251356
0.003687871
0.004210649
0.004845482
0.005631331
0.006622849
0.00790176
0.009592144
0.01188523
0.01508245
0.01967352
0.02647471
0.03685047
0.05307566
0.07877144
0.1190998
0.1797124
0.2371273
0.1607417
0.002384192
0.002793366
0.003268947
0.003683961
0.004055866
0.004407222
0.004742538
0.005059531
0.005354976
0.005625341
0.005866874
0.006076214
0.006250999
0.006390052
0.006493116
0.006560516
0.006593069
0.006592175
0.006559784
0.006498198
0.006409835
0.006297104
0.006162382
0.006008006
0.005836261
0.00564935
0.005449383
0.005238373
0.005018226
0.004790749
0.00455764
0.004320494
0.004080791
0.003839893
0.003599032
0.003359315
0.003121722
0.002887115
0.002656249
0.002429782
0.00220829
0.001992284
0.001782214
0.001578483
0.001381447
0.001191421
0.001008679
0.0008334485
0.0006659122
0.000506203
0.0003544121
0.0002105861
7.473409e-05
-5.316288e-05
-0.0001731516
-0.0002853023
-0.0003897031
-0.0004864613
-0.0005756987
-0.0006575545
-0.0007321969
-0.0007998205
-0.000860625
-0.0009148296
-0.0009626525
-0.001004256
-0.001039825
-0.001069575
-0.001093763
-0.001112602
-0.001126209
-0.001134843
-0.001138885
-0.001138722
-0.001134692
-0.001127176
-0.001116626
-0.001103186
-0.00108701
-0.001068439
-0.00104781
-0.001025432
-0.00100155
-0.0009763159
-0.0009500316
-0.0009227793
-0.0008947298
-0.0008659333
-0.0008365354
-0.000806694
-0.000776417
-0.0007457237
-0.0007146471
-0.0006832169
-0.0006513885
-0.0006191521
-0.000586412
-0.0005531363
-0.0005192458
-0.0004845755
-0.0004489609
-0.000412194
-0.000374052
-0.0003342705
-0.0002928236
-0.0002494075
-0.0002036799
-0.0001552321
-0.0001037213
-4.912985e-05
9.100297e-06
7.141326e-05
0.0001379611
0.0002092399
0.0002855579
0.0003673281
0.0004551775
0.0005496823
0.0006516403
0.0007618042
0.0008809377
0.001009604
0.001149852
0.001302713
0.001468948
0.001652826
0.001856552
0.002083416
0.0023389
0.002628536
0.002960514
0.003344881
0.003796542
0.00433523
0.004987383
0.005789091
0.006793469
0.008077767
0.009756893
0.01200543
0.01509201
0.01944134
0.02573411
0.03506406
0.04916538
0.07061188
0.1026798
0.1465607
0.1926375
0.137958
0.002535602
0.002971124
0.003477983
0.00392138
0.004320059
0.004698151
0.00506053
0.005404762
0.0057273
0.006024137
0.006290933
0.006523722
0.006719653
0.006877219
0.006995914
0.007075821
0.007117558
0.007122448
0.007092525
0.00703027
0.006938322
0.006819329
0.006675926
0.006510722
0.006326264
0.006125001
0.005909271
0.005681293
0.005443171
0.005196897
0.004944342
0.004687267
0.004427307
0.004165969
0.003904615
0.003644466
0.003386599
0.003131959
0.00288137
0.002635544
0.002395105
0.0021606
0.001932515
0.001711284
0.001497292
0.001290881
0.001092348
0.0009019434
0.000719865
0.0005462567
0.0003812138
0.0002247882
7.698994e-05
-6.220064e-05
-0.0001928307
-0.0003149717
-0.0004287148
-0.0005341675
-0.0006314561
-0.0007207254
-0.0008021483
-0.0008759297
-0.0009422913
-0.00100146
-0.001053637
-0.001098997
-0.001137737
-0.001170107
-0.001196392
-0.001216794
-0.001231409
-0.001240555
-0.001244662
-0.001244176
-0.00123945
-0.001230816
-0.001218626
-0.001203176
-0.001184776
-0.001163831
-0.001140729
-0.001115783
-0.001089304
-0.001061444
-0.001032372
-0.001002405
-0.0009715882
-0.0009399918
-0.000907814
-0.000875185
-0.0008421426
-0.0008087327
-0.000774978
-0.0007408889
-0.000706446
-0.0006716324
-0.0006363902
-0.0006006338
-0.0005642705
-0.0005271291
-0.0004890059
-0.0004497667
-0.0004091481
-0.0003667703
-0.0003226515
-0.0002765737
-0.000227956
-0.0001764268
-0.0001217298
-6.361266e-05
-1.689464e-06
6.435772e-05
0.0001349906
0.000210815
0.000291981
0.0003786544
0.0004721478
0.0005727714
0.0006803061
0.0007968759
0.000922985
0.001059055
0.001206925
0.001367904
0.001543446
0.001736936
0.001950403
0.002188471
0.002455662
0.002757792
0.003103149
0.003502282
0.003969383
0.004524085
0.005193138
0.006011452
0.007030015
0.008324017
0.01000063
0.01222093
0.01522817
0.01939459
0.02529169
0.03379037
0.04616841
0.06412257
0.08945783
0.121877
0.1536767
0.1335014
0.002682095
0.003143191
0.003680543
0.004151827
0.004577079
0.004982005
0.005371905
0.005744271
0.006095305
0.006420575
0.006715141
0.006974356
0.007194738
0.007374288
0.007512109
0.007607915
0.007662003
0.007675515
0.007650491
0.007589561
0.007495589
0.007371496
0.007220226
0.007044708
0.006847798
0.00663222
0.00640056
0.006155266
0.005898658
0.005632924
0.00536013
0.005082217
0.004801
0.004518145
0.004235163
0.003953404
0.003674059
0.003398165
0.003126621
0.002860201
0.002599578
0.002345338
0.002098002
0.001858034
0.001625848
0.001401812
0.001186247
0.0009794226
0.0007815551
0.0005927992
0.0004132527
0.00024297
8.196401e-05
-6.978796e-05
-0.0002123345
-0.0003457491
-0.0004701246
-0.0005855692
-0.0006922103
-0.0007901948
-0.0008796941
-0.0009609142
-0.00103409
-0.001099458
-0.001157215
-0.001207555