# Force coefficients
# dragDir      : (1.0000000e+00 0.0000000e+00 0.0000000e+00)
# sideDir      : (0.0000000e+00 0.0000000e+00 -1.0000000e+00)
# liftDir      : (0.0000000e+00 1.0000000e+00 0.0000000e+00)
# rollAxis     : (1.0000000e+00 0.0000000e+00 0.0000000e+00)
# pitchAxis    : (0.0000000e+00 0.0000000e+00 -1.0000000e+00)
# yawAxis      : (0.0000000e+00 1.0000000e+00 0.0000000e+00)
# magUInf      : 1.0000000e+00
# lRef         : 6.0000000e-01
# Aref         : 1.2000000e+00
# CofR         : (0.0000000e+00 0.0000000e+00 0.0000000e+00)
#
# Time         	Cd             	Cs             	Cl             	CmRoll         	CmPitch        	CmYaw          	Cd(f)          	Cd(r)          	Cs(f)          	Cs(r)          	Cl(f)          	Cl(r)          
1              	1.4007734e-02	-8.7539070e-03	-1.5187921e-06	-8.6524477e-08	-5.6486877e-07	5.8611873e-03	7.0037806e-03	7.0039536e-03	1.4842338e-03	-1.0238141e-02	-1.3242648e-06	-1.9452727e-07
2              	6.1903281e-02	-3.5463249e-02	1.4741207e-05	4.4354526e-04	8.3929020e-04	1.5675967e-02	3.1395186e-02	3.0508095e-02	-2.0556575e-03	-3.3407591e-02	8.4666080e-04	-8.3191959e-04
3              	1.1475713e-01	-6.2445043e-02	-4.4985481e-05	2.4223551e-04	4.9080659e-04	1.7832855e-02	5.7620800e-02	5.7136329e-02	-1.3389667e-02	-4.9055376e-02	4.6831385e-04	-5.1329933e-04
4              	1.5061974e-01	-7.9832309e-02	-2.9122434e-05	1.8165251e-04	3.7138299e-04	1.5476761e-02	7.5491525e-02	7.5128220e-02	-2.4439394e-02	-5.5392915e-02	3.5682177e-04	-3.8594420e-04
5              	1.6987203e-01	-8.8996572e-02	-1.2708229e-06	9.6605475e-05	1.9971854e-04	1.2211016e-02	8.5032623e-02	8.4839412e-02	-3.2287270e-02	-5.6709302e-02	1.9908313e-04	-2.0035395e-04
6              	1.7848668e-01	-9.3181713e-02	1.7552092e-05	5.0592776e-05	9.9893422e-05	9.9247224e-03	8.9293932e-02	8.9192746e-02	-3.6666134e-02	-5.6515579e-02	1.0866947e-04	-9.1117376e-05
7              	1.8167274e-01	-9.4874873e-02	2.4943497e-05	3.2052549e-05	5.6143086e-05	8.7648508e-03	9.0868423e-02	9.0804318e-02	-3.8672585e-02	-5.6202287e-02	6.8614834e-05	-4.3671337e-05
8              	1.8273146e-01	-9.5587077e-02	2.5176574e-05	2.5111590e-05	3.9154704e-05	8.3022770e-03	9.1390841e-02	9.1340618e-02	-3.9491261e-02	-5.6095815e-02	5.1742991e-05	-2.6566417e-05
9              	1.8321475e-01	-9.6010690e-02	2.2179990e-05	2.1345956e-05	3.1484397e-05	8.1434191e-03	9.1628723e-02	9.1586031e-02	-3.9861926e-02	-5.6148764e-02	4.2574392e-05	-2.0394402e-05
10             	1.8362937e-01	-9.6363193e-02	1.8196930e-05	1.7853202e-05	2.5973099e-05	8.0844526e-03	9.1832537e-02	9.1796831e-02	-4.0097144e-02	-5.6266049e-02	3.5071564e-05	-1.6874634e-05
11             	1.8404438e-01	-9.6672269e-02	1.4312635e-05	1.4327541e-05	2.0894108e-05	8.0540303e-03	9.2036519e-02	9.2007864e-02	-4.0282104e-02	-5.6390165e-02	2.8050425e-05	-1.3737790e-05
12             	1.8441873e-01	-9.6924670e-02	1.1004098e-05	1.1176474e-05	1.6422902e-05	8.0365311e-03	9.2220543e-02	9.2198190e-02	-4.0425804e-02	-5.6498866e-02	2.1924951e-05	-1.0920854e-05
13             	1.8471934e-01	-9.7114626e-02	8.3686830e-06	8.5974893e-06	1.2746349e-05	8.0302739e-03	9.2368268e-02	9.2351073e-02	-4.0527039e-02	-5.6587587e-02	1.6930691e-05	-8.5620079e-06
14             	1.8493895e-01	-9.7247976e-02	6.3473858e-06	6.5980650e-06	9.8694956e-06	8.0339486e-03	9.2476073e-02	9.2462877e-02	-4.0590039e-02	-5.6657936e-02	1.3043189e-05	-6.6958027e-06
15             	1.8508791e-01	-9.7336580e-02	4.8260830e-06	5.0854199e-06	7.6716491e-06	8.0446166e-03	9.2549043e-02	9.2538872e-02	-4.0623673e-02	-5.6712906e-02	1.0084691e-05	-5.2586076e-06
16             	1.8518282e-01	-9.7392845e-02	3.6879300e-06	3.9452712e-06	5.9985084e-06	8.0589034e-03	9.2595354e-02	9.2587463e-02	-4.0637519e-02	-5.6755326e-02	7.8424733e-06	-4.1545434e-06
17             	1.8523974e-01	-9.7427172e-02	2.8351063e-06	3.0806992e-06	4.7167303e-06	8.0740189e-03	9.2622949e-02	9.2616787e-02	-4.0639567e-02	-5.6787605e-02	6.1342834e-06	-3.2991771e-06
18             	1.8527156e-01	-9.7447288e-02	2.1916751e-06	2.4167323e-06	3.7224001e-06	8.0881198e-03	9.2638197e-02	9.2633364e-02	-4.0635524e-02	-5.6811764e-02	4.8182377e-06	-2.6265626e-06
19             	1.8528759e-01	-9.7458514e-02	1.7022332e-06	1.9013830e-06	2.9430361e-06	8.1002475e-03	9.2645694e-02	9.2641891e-02	-4.0629010e-02	-5.6829505e-02	3.7941527e-06	-2.0919194e-06
20             	1.8529411e-01	-9.7464354e-02	1.3270123e-06	1.4984879e-06	2.3280357e-06	8.1100853e-03	9.2648554e-02	9.2645557e-02	-4.0622092e-02	-5.6842262e-02	2.9915418e-06	-1.6645295e-06
21             	1.8529522e-01	-9.7467036e-02	1.0374482e-06	1.1819306e-06	1.8408449e-06	8.1177092e-03	9.2648791e-02	9.2646427e-02	-4.0615809e-02	-5.6851227e-02	2.3595689e-06	-1.3221208e-06
22             	1.8529345e-01	-9.7467943e-02	8.1279790e-07	9.3245045e-07	1.4542213e-06	8.1233955e-03	9.2647660e-02	9.2645795e-02	-4.0610576e-02	-5.6857367e-02	1.8606202e-06	-1.0478223e-06
23             	1.8529036e-01	-9.7467909e-02	6.3780945e-07	7.3552301e-07	1.1473267e-06	8.1274909e-03	9.2645916e-02	9.2644445e-02	-4.0606464e-02	-5.6861446e-02	1.4662314e-06	-8.2842195e-07
24             	1.8528684e-01	-9.7467429e-02	5.0110214e-07	5.7996891e-07	9.0387338e-07	8.1303379e-03	9.2643999e-02	9.2642839e-02	-4.0603376e-02	-5.6864052e-02	1.1544245e-06	-6.5332231e-07
25             	1.8528339e-01	-9.7466786e-02	3.9407713e-07	4.5708649e-07	7.1097946e-07	8.1322391e-03	9.2642150e-02	9.2641236e-02	-4.0601154e-02	-5.6865632e-02	9.0801803e-07	-5.1394090e-07
26             	1.8528027e-01	-9.7466141e-02	3.1015655e-07	3.6002718e-07	5.5835646e-07	8.1334437e-03	9.2640495e-02	9.2639775e-02	-4.0599627e-02	-5.6866514e-02	7.1343473e-07	-4.0327819e-07
27             	1.8527761e-01	-9.7465576e-02	2.4428086e-07	2.8340005e-07	4.3779226e-07	8.1341478e-03	9.2639088e-02	9.2638521e-02	-4.0598640e-02	-5.6866936e-02	5.5993269e-07	-3.1565183e-07
28             	1.8527544e-01	-9.7465128e-02	1.9252905e-07	2.2294118e-07	3.4271523e-07	8.1345012e-03	9.2637942e-02	9.2637496e-02	-4.0598063e-02	-5.6867065e-02	4.3897975e-07	-2.4645071e-07
29             	1.8527374e-01	-9.7464809e-02	1.5184904e-07	1.7527263e-07	2.6786777e-07	8.1346153e-03	9.2637045e-02	9.2636695e-02	-4.0597789e-02	-5.6867020e-02	3.4379229e-07	-1.9194325e-07
30             	1.8527247e-01	-9.7464612e-02	1.1985714e-07	1.3771666e-07	2.0904826e-07	8.1345721e-03	9.2636374e-02	9.2636098e-02	-4.0597734e-02	-5.6866878e-02	2.6897683e-07	-1.4911969e-07
31             	1.8527158e-01	-9.7464523e-02	9.4687234e-08	1.0815040e-07	1.6290424e-07	8.1344307e-03	9.2635896e-02	9.2635680e-02	-4.0597831e-02	-5.6866692e-02	2.1024785e-07	-1.1556062e-07
32             	1.8527099e-01	-9.7464520e-02	7.4876009e-08	8.4891429e-08	1.2676545e-07	8.1342335e-03	9.2635578e-02	9.2635409e-02	-4.0598026e-02	-5.6866494e-02	1.6420346e-07	-8.9327451e-08
33             	1.8527064e-01	-9.7464582e-02	5.9263017e-08	6.6565955e-08	9.8482606e-08	8.1340086e-03	9.2635387e-02	9.2635254e-02	-4.0598282e-02	-5.6866300e-02	1.2811411e-07	-6.8851097e-08
34             	1.8527048e-01	-9.7464689e-02	4.6972343e-08	5.2106570e-08	7.6307687e-08	8.1337789e-03	9.2635290e-02	9.2635186e-02	-4.0598566e-02	-5.6866123e-02	9.9793859e-08	-5.2821516e-08
35             	1.8527044e-01	-9.7464822e-02	3.7271117e-08	4.0801489e-08	5.9064532e-08	8.1335592e-03	9.2635262e-02	9.2635180e-02	-4.0598852e-02	-5.6865970e-02	7.7700091e-08	-4.0428974e-08
36             	1.8527050e-01	-9.7464969e-02	2.9606800e-08	3.1967772e-08	4.5686320e-08	8.1333573e-03	9.2635281e-02	9.2635218e-02	-4.0599127e-02	-5.6865842e-02	6.0489720e-08	-3.0882920e-08
37             	1.8527060e-01	-9.7465109e-02	2.3475121e-08	2.4969076e-08	3.5223467e-08	8.1331752e-03	9.2635324e-02	9.2635274e-02	-4.0599379e-02	-5.6865730e-02	4.6961028e-08	-2.3485906e-08
38             	1.8527072e-01	-9.7465243e-02	1.8669561e-08	1.9365109e-08	2.6938393e-08	8.1330177e-03	9.2635382e-02	9.2635343e-02	-4.0599604e-02	-5.6865639e-02	3.6273174e-08	-1.7603613e-08
39             	1.8527086e-01	-9.7465365e-02	1.4870610e-08	1.5084862e-08	2.0637110e-08	8.1328865e-03	9.2635445e-02	9.2635415e-02	-4.0599796e-02	-5.6865569e-02	2.8072415e-08	-1.3201806e-08
40             	1.8527099e-01	-9.7465473e-02	1.1859643e-08	1.1809780e-08	1.5857803e-08	8.1327793e-03	9.2635509e-02	9.2635486e-02	-4.0599957e-02	-5.6865516e-02	2.1787625e-08	-9.9279816e-09
41             	1.8527112e-01	-9.7465564e-02	9.4768195e-09	9.2795520e-09	1.2217887e-08	8.1326929e-03	9.2635569e-02	9.2635550e-02	-4.0600089e-02	-5.6865475e-02	1.6956296e-08	-7.4794770e-09
42             	1.8527122e-01	-9.7465639e-02	7.5926958e-09	7.3077707e-09	9.4314040e-09	8.1326247e-03	9.2635620e-02	9.2635605e-02	-4.0600195e-02	-5.6865444e-02	1.3227752e-08	-5.6350561e-09
43             	1.8527131e-01	-9.7465697e-02	6.1010109e-09	5.7615692e-09	7.2882702e-09	8.1325725e-03	9.2635661e-02	9.2635649e-02	-4.0600276e-02	-5.6865421e-02	1.0338776e-08	-4.2377647e-09
44             	1.8527137e-01	-9.7465738e-02	4.9165271e-09	4.5443564e-09	5.6342264e-09	8.1325339e-03	9.2635691e-02	9.2635682e-02	-4.0600335e-02	-5.6865403e-02	8.0924899e-09	-3.1759628e-09
45             	1.8527142e-01	-9.7465766e-02	3.9724075e-09	3.5841471e-09	4.3549974e-09	8.1325067e-03	9.2635712e-02	9.2635705e-02	-4.0600376e-02	-5.6865390e-02	6.3412012e-09	-2.3687937e-09
46             	1.8527144e-01	-9.7465781e-02	3.2169014e-09	2.8260545e-09	3.3647661e-09	8.1324887e-03	9.2635724e-02	9.2635718e-02	-4.0600402e-02	-5.6865379e-02	4.9732168e-09	-1.7563154e-09
47             	1.8527144e-01	-9.7465781e-02	2.5821744e-09	2.2464738e-09	2.6254436e-09	8.1324776e-03	9.2635723e-02	9.2635719e-02	-4.0600413e-02	-5.6865368e-02	3.9165308e-09	-1.3343564e-09
48             	1.8527143e-01	-9.7465777e-02	2.0868372e-09	1.7132852e-09	1.9536565e-09	8.1324717e-03	9.2635719e-02	9.2635715e-02	-4.0600417e-02	-5.6865360e-02	2.9970751e-09	-9.1023787e-10
49             	1.8527142e-01	-9.7465769e-02	1.6916276e-09	1.3236210e-09	1.4651415e-09	8.1324704e-03	9.2635712e-02	9.2635709e-02	-4.0600414e-02	-5.6865355e-02	2.3109553e-09	-6.1932776e-10
50             	1.8527141e-01	-9.7465761e-02	1.3716318e-09	1.0437828e-09	1.1210533e-09	8.1324722e-03	9.2635704e-02	9.2635702e-02	-4.0600408e-02	-5.6865352e-02	1.8068692e-09	-4.3523744e-10
51             	1.8527139e-01	-9.7465751e-02	1.1133548e-09	8.3596871e-10	8.7455892e-10	8.1324756e-03	9.2635695e-02	9.2635694e-02	-4.0600400e-02	-5.6865351e-02	1.4312363e-09	-3.1788153e-10
