# Force coefficients
# dragDir      : (1.0000000e+00 0.0000000e+00 0.0000000e+00)
# sideDir      : (0.0000000e+00 0.0000000e+00 -1.0000000e+00)
# liftDir      : (0.0000000e+00 1.0000000e+00 0.0000000e+00)
# rollAxis     : (1.0000000e+00 0.0000000e+00 0.0000000e+00)
# pitchAxis    : (0.0000000e+00 0.0000000e+00 -1.0000000e+00)
# yawAxis      : (0.0000000e+00 1.0000000e+00 0.0000000e+00)
# magUInf      : 1.0000000e+00
# lRef         : 6.0000000e-01
# Aref         : 1.3849340e+00
# CofR         : (0.0000000e+00 0.0000000e+00 0.0000000e+00)
#
# Time         	Cd             	Cs             	Cl             	CmRoll         	CmPitch        	CmYaw          	Cd(f)          	Cd(r)          	Cs(f)          	Cs(r)          	Cl(f)          	Cl(r)          
1              	1.2137243e-02	-7.5849740e-03	-1.3159836e-06	-7.4970628e-08	-4.8944031e-07	5.0785271e-03	6.0685467e-03	6.0686967e-03	1.2860400e-03	-8.8710141e-03	-1.1474321e-06	-1.6855151e-07
2              	5.3637168e-02	-3.0727745e-02	1.2772774e-05	3.8431745e-04	7.2721750e-04	1.3582713e-02	2.7202901e-02	2.6434266e-02	-1.7811600e-03	-2.8946585e-02	7.3360388e-04	-7.2083111e-04
3              	9.9433298e-02	-5.4106587e-02	-3.8978448e-05	2.0988914e-04	4.2526785e-04	1.5451585e-02	4.9926538e-02	4.9506760e-02	-1.1601708e-02	-4.2504879e-02	4.0577863e-04	-4.4475708e-04
4              	1.3050708e-01	-6.9172084e-02	-2.5233636e-05	1.5739595e-04	3.2179121e-04	1.3410107e-02	6.5410936e-02	6.5096144e-02	-2.1175936e-02	-4.7996149e-02	3.0917439e-04	-3.3440802e-04
5              	1.4718856e-01	-7.7112618e-02	-1.1011264e-06	8.3705483e-05	1.7304958e-04	1.0580446e-02	7.3677985e-02	7.3510574e-02	-2.7975863e-02	-4.9136755e-02	1.7249902e-04	-1.7360014e-04
6              	1.5465287e-01	-8.0738906e-02	1.5208313e-05	4.3836985e-05	8.6554382e-05	8.5994472e-03	7.7370270e-02	7.7282597e-02	-3.1770006e-02	-4.8968900e-02	9.4158539e-05	-7.8950226e-05
7              	1.5741349e-01	-8.2205973e-02	2.1612724e-05	2.7772485e-05	4.8646147e-05	7.5944565e-03	7.8734516e-02	7.8678971e-02	-3.3508530e-02	-4.8697443e-02	5.9452509e-05	-3.7839785e-05
8              	1.5833083e-01	-8.2823075e-02	2.1814677e-05	2.1758371e-05	3.3926270e-05	7.1936514e-03	7.9187174e-02	7.9143657e-02	-3.4217886e-02	-4.8605189e-02	4.4833609e-05	-2.3018931e-05
9              	1.5874959e-01	-8.3190121e-02	1.9218236e-05	1.8495573e-05	2.7280200e-05	7.0560062e-03	7.9393290e-02	7.9356299e-02	-3.4539054e-02	-4.8651067e-02	3.6889318e-05	-1.7671082e-05
10             	1.5910884e-01	-8.3495554e-02	1.5767045e-05	1.5469215e-05	2.2504841e-05	7.0049136e-03	7.9569889e-02	7.9538950e-02	-3.4742864e-02	-4.8752691e-02	3.0388363e-05	-1.4621318e-05
11             	1.5946844e-01	-8.3763358e-02	1.2401430e-05	1.2414346e-05	1.8104061e-05	6.9785538e-03	7.9746633e-02	7.9721804e-02	-3.4903125e-02	-4.8860233e-02	2.4304776e-05	-1.1903346e-05
12             	1.5979280e-01	-8.3982055e-02	9.5346905e-06	9.6840487e-06	1.4229908e-05	6.9633913e-03	7.9906083e-02	7.9886715e-02	-3.5027636e-02	-4.8954419e-02	1.8997253e-05	-9.4625624e-06
13             	1.6005327e-01	-8.4146646e-02	7.2511900e-06	7.4494432e-06	1.1044295e-05	6.9579696e-03	8.0034082e-02	8.0019183e-02	-3.5115353e-02	-4.9031293e-02	1.4669890e-05	-7.4186997e-06
14             	1.6024355e-01	-8.4262189e-02	5.4998022e-06	5.7170074e-06	8.5515951e-06	6.9611536e-03	8.0127492e-02	8.0116058e-02	-3.5169941e-02	-4.9092248e-02	1.1301496e-05	-5.8016940e-06
15             	1.6037262e-01	-8.4338962e-02	4.1816431e-06	4.4063500e-06	6.6472329e-06	6.9703971e-03	8.0190718e-02	8.0181905e-02	-3.5199084e-02	-4.9139878e-02	8.7380545e-06	-4.5564114e-06
16             	1.6045485e-01	-8.4387714e-02	3.1954707e-06	3.4184484e-06	5.1975112e-06	6.9827761e-03	8.0230844e-02	8.0224008e-02	-3.5211081e-02	-4.9176633e-02	6.7952466e-06	-3.5997759e-06
17             	1.6050417e-01	-8.4417457e-02	2.4565269e-06	2.6693250e-06	4.0868925e-06	6.9958732e-03	8.0254755e-02	8.0249416e-02	-3.5212855e-02	-4.9204602e-02	5.3151559e-06	-2.8586290e-06
18             	1.6053175e-01	-8.4434887e-02	1.8990147e-06	2.0940195e-06	3.2253379e-06	7.0080912e-03	8.0267967e-02	8.0263779e-02	-3.5209352e-02	-4.9225535e-02	4.1748453e-06	-2.2758306e-06
19             	1.6054563e-01	-8.4444614e-02	1.4749294e-06	1.6474862e-06	2.5500444e-06	7.0185994e-03	8.0274463e-02	8.0271168e-02	-3.5203708e-02	-4.9240907e-02	3.2875092e-06	-1.8125797e-06
20             	1.6055128e-01	-8.4449674e-02	1.1498128e-06	1.2983908e-06	2.0171667e-06	7.0271235e-03	8.0276941e-02	8.0274344e-02	-3.5197713e-02	-4.9251960e-02	2.5920731e-06	-1.4422604e-06
21             	1.6055224e-01	-8.4451998e-02	8.9891490e-07	1.0241042e-06	1.5950318e-06	7.0337295e-03	8.0277146e-02	8.0275098e-02	-3.5192270e-02	-4.9259729e-02	2.0444893e-06	-1.1455744e-06
22             	1.6055072e-01	-8.4452784e-02	7.0426279e-07	8.0793781e-07	1.2600351e-06	7.0386565e-03	8.0276166e-02	8.0274550e-02	-3.5187736e-02	-4.9265048e-02	1.6121665e-06	-9.0790375e-07
23             	1.6054804e-01	-8.4452755e-02	5.5264102e-07	6.3730662e-07	9.9412103e-07	7.0422049e-03	8.0274656e-02	8.0273381e-02	-3.5184172e-02	-4.9268582e-02	1.2704415e-06	-7.1780052e-07
24             	1.6054498e-01	-8.4452338e-02	4.3418861e-07	5.0252408e-07	7.8317671e-07	7.0446718e-03	8.0272994e-02	8.0271989e-02	-3.5181497e-02	-4.9270841e-02	1.0002710e-06	-5.6608241e-07
25             	1.6054199e-01	-8.4451781e-02	3.4145494e-07	3.9605049e-07	6.1604044e-07	7.0463192e-03	8.0271392e-02	8.0270600e-02	-3.5179572e-02	-4.9272210e-02	7.8676791e-07	-4.4531297e-07
26             	1.6053929e-01	-8.4451222e-02	2.6874050e-07	3.1195177e-07	4.8379761e-07	7.0473629e-03	8.0269958e-02	8.0269334e-02	-3.5178248e-02	-4.9272974e-02	6.1816786e-07	-3.4942736e-07
27             	1.6053699e-01	-8.4450732e-02	2.1166137e-07	2.4555687e-07	3.7933267e-07	7.0479730e-03	8.0268739e-02	8.0268248e-02	-3.5177393e-02	-4.9273339e-02	4.8516335e-07	-2.7350198e-07
28             	1.6053511e-01	-8.4450345e-02	1.6682012e-07	1.9317124e-07	2.9695153e-07	7.0482791e-03	8.0267746e-02	8.0267359e-02	-3.5176893e-02	-4.9273452e-02	3.8036160e-07	-2.1354147e-07
29             	1.6053363e-01	-8.4450068e-02	1.3157222e-07	1.5186800e-07	2.3209866e-07	7.0483780e-03	8.0266969e-02	8.0266665e-02	-3.5176656e-02	-4.9273412e-02	2.9788477e-07	-1.6631255e-07
30             	1.6053254e-01	-8.4449898e-02	1.0385229e-07	1.1932698e-07	1.8113348e-07	7.0483406e-03	8.0266387e-02	8.0266148e-02	-3.5176608e-02	-4.9273290e-02	2.3305963e-07	-1.2920734e-07
31             	1.6053176e-01	-8.4449820e-02	8.2043390e-08	9.3708785e-08	1.4115119e-07	7.0482181e-03	8.0265973e-02	8.0265786e-02	-3.5176692e-02	-4.9273128e-02	1.8217288e-07	-1.0012949e-07
32             	1.6053125e-01	-8.4449818e-02	6.4877612e-08	7.3555646e-08	1.0983812e-07	7.0480472e-03	8.0265698e-02	8.0265551e-02	-3.5176862e-02	-4.9272956e-02	1.4227693e-07	-7.7399313e-08
33             	1.6053095e-01	-8.4449872e-02	5.1349465e-08	5.7677222e-08	8.5331956e-08	7.0478524e-03	8.0265532e-02	8.0265417e-02	-3.5177084e-02	-4.9272788e-02	1.1100669e-07	-5.9657223e-08
34             	1.6053081e-01	-8.4449964e-02	4.0699998e-08	4.5148638e-08	6.6118115e-08	7.0476533e-03	8.0265448e-02	8.0265358e-02	-3.5177329e-02	-4.9272635e-02	8.6468114e-08	-4.5768115e-08
35             	1.6053078e-01	-8.4450080e-02	3.2294203e-08	3.5353155e-08	5.1177485e-08	7.0474630e-03	8.0265424e-02	8.0265353e-02	-3.5177577e-02	-4.9272503e-02	6.7324586e-08	-3.5030383e-08
36             	1.6053083e-01	-8.4450207e-02	2.5653323e-08	2.7699029e-08	3.9585702e-08	7.0472880e-03	8.0265441e-02	8.0265385e-02	-3.5177816e-02	-4.9272392e-02	5.2412363e-08	-2.6759040e-08
37             	1.6053091e-01	-8.4450328e-02	2.0340425e-08	2.1634888e-08	3.0519982e-08	7.0471302e-03	8.0265477e-02	8.0265434e-02	-3.5178034e-02	-4.9272294e-02	4.0690194e-08	-2.0349770e-08
38             	1.6053102e-01	-8.4450444e-02	1.6176563e-08	1.6779233e-08	2.3341237e-08	7.0469938e-03	8.0265527e-02	8.0265494e-02	-3.5178228e-02	-4.9272216e-02	3.1429518e-08	-1.5252955e-08
39             	1.6053114e-01	-8.4450550e-02	1.2884897e-08	1.3070539e-08	1.7881381e-08	7.0468801e-03	8.0265583e-02	8.0265556e-02	-3.5178395e-02	-4.9272155e-02	2.4323829e-08	-1.1438933e-08
40             	1.6053126e-01	-8.4450643e-02	1.0275993e-08	1.0232788e-08	1.3740268e-08	7.0467872e-03	8.0265638e-02	8.0265617e-02	-3.5178534e-02	-4.9272109e-02	1.8878264e-08	-8.6022712e-09
41             	1.6053136e-01	-8.4450723e-02	8.2113540e-09	8.0404282e-09	1.0586399e-08	7.0467123e-03	8.0265689e-02	8.0265673e-02	-3.5178649e-02	-4.9272074e-02	1.4692076e-08	-6.4807221e-09
42             	1.6053145e-01	-8.4450788e-02	6.5788225e-09	6.3319443e-09	8.1720030e-09	7.0466532e-03	8.0265734e-02	8.0265721e-02	-3.5178741e-02	-4.9272047e-02	1.1461414e-08	-4.8825917e-09
43             	1.6053153e-01	-8.4450837e-02	5.2863264e-09	4.9922112e-09	6.3150477e-09	7.0466080e-03	8.0265769e-02	8.0265759e-02	-3.5178811e-02	-4.9272027e-02	8.9582108e-09	-3.6718845e-09
44             	1.6053158e-01	-8.4450873e-02	4.2600099e-09	3.9375362e-09	4.8818728e-09	7.0465746e-03	8.0265796e-02	8.0265788e-02	-3.5178862e-02	-4.9272011e-02	7.0118777e-09	-2.7518679e-09
45             	1.6053162e-01	-8.4450897e-02	3.4419611e-09	3.1055462e-09	3.7734628e-09	7.0465510e-03	8.0265814e-02	8.0265807e-02	-3.5178898e-02	-4.9272000e-02	5.4944433e-09	-2.0524822e-09
46             	1.6053164e-01	-8.4450911e-02	2.7873398e-09	2.4486838e-09	2.9154598e-09	7.0465354e-03	8.0265824e-02	8.0265819e-02	-3.5178920e-02	-4.9271991e-02	4.3091296e-09	-1.5217899e-09
47             	1.6053164e-01	-8.4450911e-02	2.2373696e-09	1.9464960e-09	2.2748610e-09	7.0465257e-03	8.0265823e-02	8.0265819e-02	-3.5178930e-02	-4.9271981e-02	3.3935458e-09	-1.1561762e-09
48             	1.6053164e-01	-8.4450907e-02	1.8081762e-09	1.4845056e-09	1.6927794e-09	7.0465207e-03	8.0265819e-02	8.0265816e-02	-3.5178933e-02	-4.9271974e-02	2.5968675e-09	-7.8869133e-10
49             	1.6053162e-01	-8.4450900e-02	1.4657399e-09	1.1468743e-09	1.2694972e-09	7.0465195e-03	8.0265813e-02	8.0265811e-02	-3.5178931e-02	-4.9271970e-02	2.0023672e-09	-5.3662724e-10
50             	1.6053161e-01	-8.4450893e-02	1.1884741e-09	9.0440361e-10	9.7135604e-10	7.0465211e-03	8.0265806e-02	8.0265805e-02	-3.5178925e-02	-4.9271967e-02	1.5655931e-09	-3.7711900e-10
51             	1.6053160e-01	-8.4450885e-02	9.6468549e-10	7.2433953e-10	7.5777669e-10	7.0465240e-03	8.0265799e-02	8.0265798e-02	-3.5178918e-02	-4.9271966e-02	1.2401194e-09	-2.7543395e-10
