/*--------------------------------*- C++ -*----------------------------------*\
| =========                 |                                                 |
| \\      /  F ield         | OpenFOAM: The Open Source CFD Toolbox           |
|  \\    /   O peration     | Version:  2106                                  |
|   \\  /    A nd           | Website:  www.openfoam.com                      |
|    \\/     M anipulation  |                                                 |
\*---------------------------------------------------------------------------*/
FoamFile
{
    version     2.0;
    format      ascii;
    arch        "LSB;label=32;scalar=64";
    class       volScalarField;
    location    "20";
    object      p;
}
// * * * * * * * * * * * * * * * * * * * * * * * * * * * * * * * * * * * * * //

dimensions      [ 0 2 -2 0 0 0 0 ];

internalField   nonuniform List<scalar> 
300000
(
0.0007490633
0.001928892
0.002663808
0.002653834
0.002753712
0.003076434
0.003460719
0.003845318
0.004258904
0.004751087
0.005297221
0.005891739
0.00654316
0.007287393
0.008131424
0.00909699
0.01015531
0.01130113
0.01250104
0.01373759
0.01497857
0.0162752
0.0175993
0.01884472
0.01978547
0.02050661
0.0212072
0.02173026
0.02210857
0.02241763
0.02195421
0.02109742
0.02056543
0.02002335
0.01993341
0.01912759
0.01789745
0.01825123
0.0174376
0.01677155
0.01528057
0.01514799
0.01477827
0.01613945
0.01419629
0.01405625
0.01369166
0.0156898
0.01527744
0.01106565
0.01317523
0.009501383
0.008631113
0.007881137
0.007378975
0.006027043
0.005952066
0.005165565
0.007251234
0.006003629
0.006234383
0.006442519
0.006295244
0.004578183
0.003965476
0.001488083
-7.277768e-05
-0.0009952628
-0.0009052135
-0.001630294
-0.00226346
-0.002520079
-0.003331464
-0.003166822
-0.002554456
-0.002175353
-0.001522632
-0.001031092
-0.001244239
-0.001677139
-0.001671004
-0.0006107732
0.0002488331
0.0008052874
0.001016009
0.0007920539
0.0002638685
-0.000219036
-0.0001673842
0.0003047708
0.0006368663
0.0009045666
0.001196023
0.001403696
0.001405684
0.001085937
0.0003391794
-0.0004376033
-0.0008520961
-0.001035949
-0.001062829
-0.0009638618
-0.0008129636
-0.0006988824
-0.0006408014
-0.0006225049
-0.0006206886
-0.0006235614
-0.0006258886
-0.0006248689
-0.0006210668
-0.0006148071
-0.0006067299
-0.0005986477
-0.0005924654
-0.0005891379
-0.0005877384
-0.0005866106
-0.0005845311
-0.0005813466
-0.0005769274
-0.0005712814
-0.0005642293
-0.0005558825
-0.0005463833
-0.0005358109
-0.0005243367
-0.0005122406
-0.0004996942
-0.0004867808
-0.0004735797
-0.000460173
-0.0004466417
-0.0004330588
-0.0004194957
-0.0004060329
-0.0003927638
-0.0003797972
-0.0003672601
-0.0003552965
-0.0003440578
-0.0003336905
-0.0003243369
-0.000316174
-0.0003094611
-0.0003046315
-0.0003024447
-0.0003041985
-0.0003121026
-0.0003311417
0.001110614
0.001629746
0.001555223
0.001027593
0.001044788
0.001461595
0.001782046
0.001890565
0.001947655
0.002062999
0.00222295
0.002374312
0.002517652
0.002669934
0.00284762
0.003048838
0.003268547
0.003488815
0.003725231
0.003974518
0.004254872
0.004575413
0.004944504
0.005366548
0.005861824
0.006491153
0.007282234
0.008206636
0.009230416
0.01030924
0.01129155
0.01223865
0.01325086
0.01422314
0.01511245
0.01570772
0.01606176
0.01630449
0.01612016
0.01575536
0.01522633
0.01475056
0.01422151
0.01390573
0.01346103
0.01328844
0.0128321
0.01191502
0.01027687
0.008345248
0.007256843
0.005800567
0.005077158
0.004761135
0.004782539
0.004890041
0.005283929
0.005659563
0.006206398
0.006108674
0.005912452
0.005539365
0.004654357
0.003123159
0.001543432
-1.815994e-05
-0.0008559753
-0.001064167
-0.001049851
-0.001359613
-0.0009444341
-0.001159202
-0.001701419
-0.001570066
-0.001692591
-0.001673327
-0.001312044
-0.0009922807
-0.0008563737
-0.0008388468
-0.0004736594
0.0002436104
0.0009538164
0.001194008
0.001055922
0.0009434686
0.0006394669
2.827702e-05
-0.0003079479
8.091291e-05
0.0004234503
0.0006405425
0.0008687239
0.001030162
0.001013431
0.0007073445
0.0001084168
-0.000507697
-0.000885259
-0.001039917
-0.001011404
-0.0008662292
-0.0006879576
-0.0005434061
-0.0004522015
-0.0004042558
-0.0003834666
-0.0003790768
-0.0003834816
-0.0003959489
-0.0004140141
-0.0004347905
-0.0004593362
-0.0004835476
-0.0005043836
-0.0005205804
-0.0005329313
-0.0005405796
-0.0005438018
-0.0005450493
-0.0005454884
-0.0005451543
-0.0005423944
-0.0005370603
-0.0005295162
-0.0005199654
-0.0005087592
-0.0004963955
-0.0004832205
-0.0004694018
-0.0004550931
-0.0004404343
-0.0004255403
-0.0004105136
-0.0003954492
-0.0003804446
-0.0003656063
-0.0003510597
-0.0003369598
-0.0003234983
-0.0003109033
-0.0002994351
-0.0002893759
-0.000281017
-0.0002746956
-0.0002708896
-0.0002704091
-0.0002746674
-0.0002865446
-0.0003110537
0.001527895
0.002351094
0.002735765
0.00266205
0.002967851
0.003524036
0.003931478
0.00416969
0.004446732
0.004867268
0.00537134
0.005878143
0.006364539
0.006854482
0.007391207
0.007980549
0.008618594
0.009291082
0.009991126
0.0107147
0.01145022
0.01219485
0.01294973
0.0137267
0.01454532
0.01542315
0.01637853
0.01740746
0.01848201
0.01955685
0.02053802
0.02139121
0.02212698
0.02272433
0.0231393
0.02328796
0.02317103
0.0228501
0.02223223
0.02136182
0.0203332
0.01929016
0.01827407
0.01732865
0.01640359
0.01568657
0.01496269
0.01393326
0.01239362
0.01062531
0.009058732
0.007591493
0.006650218
0.006162966
0.006053133
0.006207779
0.006590521
0.007021811
0.007287352
0.007104886
0.006742595
0.006132341
0.005097679
0.003602629
0.001919053
0.0004289967
-0.0004224201
-0.0006701803
-0.0007340857
-0.001144187
-0.0008403842
-0.001015879
-0.001537638
-0.001185208
-0.001229073
-0.001511297
-0.001607868
-0.001746165
-0.001756148
-0.001414129
-0.0008460269
-0.0001923036
0.0005909541
0.0009933925
0.0008041178
0.0006328343
0.0004291172
-9.096806e-05
-0.0004233127
-0.0002435945
-0.0001924933
-0.000244808
-0.0001770053
-2.15106e-05
4.323566e-05
-8.211561e-05
-0.0004033465
-0.0007691384
-0.001019989
-0.001107805
-0.001055824
-0.0009233432
-0.0007739585
-0.0006498907
-0.0005633845
-0.000508868
-0.0004754403
-0.0004551489
-0.000443818
-0.0004411025
-0.000446573
-0.0004593246
-0.0004784543
-0.000501813
-0.0005266257
-0.0005513307
-0.0005745012
-0.0005945594
-0.0006111122
-0.0006228609
-0.0006307978
-0.0006366159
-0.0006401579
-0.0006413439
-0.0006402734
-0.0006369401
-0.000631432
-0.0006234432
-0.0006132635
-0.0006013222
-0.000587979
-0.0005734894
-0.0005580255
-0.0005417763
-0.0005249433
-0.0005077114
-0.0004902587
-0.0004727733
-0.0004554672
-0.0004385871
-0.0004224181
-0.0004072863
-0.000393568
-0.0003816895
-0.0003721548
-0.0003656167
-0.0003629661
-0.0003655319
-0.0003754601
-0.0003953897
0.0018483
0.002715703
0.0029147
0.002532447
0.002520224
0.00282884
0.003100591
0.003282797
0.003524213
0.003891877
0.004310235
0.004691961
0.005031279
0.005355018
0.005721916
0.006173997
0.006704839
0.00730391
0.007970184
0.008699808
0.009507924
0.01040348
0.0113777
0.01242859
0.01356394
0.01481342
0.01617065
0.01760803
0.0190922
0.02056274
0.0219456
0.02317401
0.02421049
0.02499696
0.02548758
0.02566348
0.02552901
0.02511365
0.02440324
0.02344207
0.02229481
0.02110656
0.01992923
0.0187722
0.01759267
0.0164678
0.01538579
0.01423401
0.0129905
0.01161293
0.0100216
0.008444474
0.007315523
0.006700494
0.006539224
0.006718925
0.007129675
0.007634714
0.007908432
0.007652977
0.007194359
0.006518694
0.005457493
0.003964002
0.002292893
0.0008232089
-7.815157e-05
-0.0004663318
-0.0006702966
-0.00107785
-0.0008918458
-0.001186103
-0.001515669
-0.0009634221
-0.001109694
-0.001564182
-0.001829986
-0.002076649
-0.001870194
-0.001523087
-0.0009328326
-0.0002093211
0.0006633688
0.001234637
0.0008933814
0.000495352
0.0003468161
-0.0001293629
-0.000458031
-0.0005196173
-0.000739855
-0.0008802907
-0.0007778015
-0.0005476921
-0.0004307974
-0.0004600908
-0.0005913134
-0.000765156
-0.0008937137
-0.0009262895
-0.0008747701
-0.0007804833
-0.0006830373
-0.0006046409
-0.0005485842
-0.0005076857
-0.0004743187
-0.0004449449
-0.0004203996
-0.00040406
-0.0003986165
-0.0004048637
-0.0004216421
-0.0004465098
-0.0004760264
-0.0005073681
-0.0005381837
-0.0005667639
-0.0005916574
-0.0006122826
-0.0006279927
-0.0006395739
-0.000648314
-0.0006546793
-0.0006588075
-0.0006607766
-0.0006604444
-0.0006576077
-0.0006523317
-0.0006447888
-0.0006352365
-0.0006239546
-0.0006111815
-0.000597088
-0.0005818597
-0.0005656714
-0.0005487193
-0.0005312202
-0.0005134146
-0.0004955819
-0.0004780486
-0.0004611884
-0.0004454446
-0.0004313264
-0.0004193814
-0.0004102493
-0.0004048108
-0.0004044
-0.0004111523
-0.000427693
0.002146248
0.003101218
0.003372919
0.003134556
0.003326286
0.003838874
0.004295627
0.004636568
0.005007616
0.005484622
0.006012384
0.006498214
0.006938217
0.007366229
0.007815971
0.008343226
0.008962171
0.009642571
0.01037527
0.01116185
0.01199588
0.01290476
0.01390917
0.01498663
0.01612902
0.01736472
0.0187061
0.02012546
0.02157644
0.02302252
0.02440316
0.0256396
0.02665824
0.02740502
0.02783068
0.02791768
0.02767956
0.02714982
0.02634056
0.02528469
0.02402841
0.02267547
0.0213411
0.02005756
0.0187514
0.01736053
0.01592785
0.01446613
0.01309625
0.01209881
0.0111188
0.00958622
0.008215185
0.007411194
0.007132114
0.007237739
0.007624297
0.008219079
0.008559573
0.008124518
0.007675971
0.00701936
0.005935129
0.004401008
0.002710191
0.001207784
0.0002671638
-0.0001508833
-0.0003682324
-0.0007916037
-0.0009318449
-0.001223398
-0.001480931
-0.001079598
-0.001293828
-0.001906672
-0.002389773
-0.002435314
-0.002036186
-0.00159558
-0.001039282
-0.0003892507
0.0004635693
0.001260718
0.001161919
0.0005145135
0.0002762225
-0.0001500228
-0.0004845635
-0.0007600889
-0.001041349
-0.001204201
-0.001214408
-0.0009669991
-0.000728538
-0.0006721953
-0.0006929382
-0.0007357926
-0.0007620772
-0.0007450049
-0.0006944681
-0.0006364332
-0.0005912154
-0.0005661125
-0.0005534859
-0.0005390707
-0.0005139411
-0.0004774874
-0.0004364264
-0.0004004316
-0.0003773278
-0.000370823
-0.0003806882
-0.0004036956
-0.0004354153
-0.0004715644
-0.0005088776
-0.0005448752
-0.0005781945
-0.0006078522
-0.0006330429
-0.0006537642
-0.0006694563
-0.0006806426
-0.0006887313
-0.0006944714
-0.0006978242
-0.0006986983
-0.0006971182
-0.0006931284
-0.0006869647
-0.0006787137
-0.0006686119
-0.000656856
-0.0006436424
-0.0006291117
-0.0006134069
-0.0005967101
-0.0005792475
-0.0005612928
-0.000543176
-0.0005252992
-0.0005081528
-0.0004922958
-0.0004783341
-0.0004669683
-0.0004591504
-0.0004562747
-0.0004605185
-0.000474342
0.002418799
0.003443037
0.003762167
0.003552593
0.003719204
0.00413979
0.004478932
0.004713935
0.005002563
0.00542077
0.005915879
0.00638762
0.006808227
0.0072282
0.007676537
0.008190054
0.008813873
0.009536653
0.01032376
0.01118295
0.01211129
0.01310669
0.01421496
0.01544353
0.01674462
0.0181142
0.01957411
0.02110542
0.02266587
0.02418565
0.02562656
0.02693829
0.02804
0.02884299
0.02929911
0.02939672
0.02915074
0.02858701
0.02774123
0.02666126
0.02537959
0.02393616
0.02248076
0.02108594
0.01972563
0.01826727
0.01666698
0.01500206
0.01334924
0.01205879
0.01146694
0.01077292
0.009291377
0.008184861
0.007678091
0.007618022
0.00793985
0.008602613
0.009008971
0.008472907
0.008193984
0.007528578
0.006623216
0.00497659
0.003186513
0.001615835
0.0006244021
0.0001909628
-5.460599e-05
-0.0005610711
-0.0007875797
-0.0008998707
-0.001257589
-0.001561929
-0.001542609
-0.002066346
-0.002456742
-0.002595042
-0.00195445
-0.001436965
-0.0009303697
-0.000393235
0.0002817048
0.001117093
0.001125768
0.0004390676
7.048133e-05
-0.0003620179
-0.0007824523
-0.001175206
-0.001353405
-0.001455325
-0.001432877
-0.001187215
-0.0009459302
-0.000842169
-0.0007648203
-0.0007036416
-0.0006387537
-0.0005623269
-0.000490186
-0.0004481727
-0.0004507233
-0.0004887116
-0.0005367927
-0.00056643
-0.000560813
-0.0005210223
-0.0004615972
-0.0004013423
-0.0003552762
-0.0003313142
-0.0003306861
-0.0003496804
-0.0003820706
-0.0004215908
-0.0004633534
-0.0005042299
-0.0005428462
-0.0005782226
-0.0006101619
-0.0006382995
-0.0006620334
-0.0006814661
-0.0006958963
-0.0007061706
-0.0007134502
-0.0007181588
-0.0007203015
-0.0007198877
-0.0007171551
-0.0007122541
-0.0007053919
-0.0006966198
-0.0006861406
-0.0006741129
-0.0006606506
-0.0006458586
-0.0006298955
-0.0006129922
-0.0005954506
-0.0005776576
-0.0005600972
-0.0005433341
-0.0005279998
-0.0005148173
-0.0005047195
-0.000499076
-0.0005001563
-0.0005104772
0.002673608
0.003759179
0.004134317
0.003985024
0.004196206
0.004647065
0.005032347
0.005341762
0.00572151
0.006233227
0.006816508
0.00737496
0.007862828
0.008329158
0.008826296
0.009369732
0.009999281
0.01074022
0.0115577
0.01243108
0.01337826
0.01438529
0.01546701
0.01668186
0.01801061
0.01939517
0.02084044
0.02235105
0.02389528
0.02542044
0.02683726
0.02811549
0.02921493
0.03005481
0.03054437
0.0306479
0.03039377
0.0298235
0.02896569
0.02784693
0.02654562
0.02509252
0.0235148
0.02201181
0.02058483
0.01912883
0.01749321
0.01575429
0.01399028
0.01235818
0.01142802
0.01120879
0.01048732
0.009113182
0.008241828
0.007931677
0.008138957
0.008794095
0.009175904
0.008624731
0.008711483
0.007985476
0.007320369
0.005551702
0.003700331
0.002032915
0.0009464911
0.000470155
0.000183186
-0.0004370393
-0.0008650409
-0.0008805322
-0.001235371
-0.001796263
-0.001752865
-0.002122864
-0.002533144
-0.002608381
-0.001805974
-0.001272269
-0.0007836122
-0.000274636
0.0003752152
0.001204687
0.001431314
0.0005851172
-0.000277594
-0.0008613371
-0.001340595
-0.001717829
-0.001743954
-0.00175598
-0.0016966
-0.001417038
-0.001096052
-0.0009235768
-0.0008350626
-0.0007266306
-0.0005877247
-0.0004419042
-0.0003206089
-0.0002649617
-0.0002942487
-0.0003945798
-0.0005187287
-0.0006100238
-0.0006338388
-0.0005895085
-0.0005040822
-0.0004114427
-0.0003364634
-0.0002911977
-0.0002780433
-0.0002923162
-0.0003258146
-0.0003697994
-0.0004171964
-0.0004636032
-0.0005069475
-0.0005465191
-0.0005826072
-0.0006152312
-0.0006444974
-0.0006703157
-0.0006918917
-0.0007094738
-0.0007219491
-0.0007302344
-0.0007357021
-0.0007384164
-0.0007385311
-0.0007363257
-0.0007320866
-0.0007260326
-0.0007182588
-0.0007088058
-0.0006977739
-0.0006852555
-0.0006713181
-0.0006560983
-0.00063982
-0.0006228164
-0.000605529
-0.0005885
-0.0005723575
-0.0005578215
-0.0005457944
-0.000537633
-0.0005356302
-0.0005423447
0.00291409
0.004053405
0.00448328
0.004395806
0.004647355
0.005110998
0.005502519
0.005820964
0.006206364
0.006715419
0.007289631
0.007844
0.008328608
0.008780522
0.009274437
0.00982852
0.01045635
0.01119674
0.0120447
0.01295845
0.01394234
0.01500665
0.01612718
0.01734607
0.01871451
0.02017041
0.02166191
0.02319668
0.02474848
0.02629359
0.02775416
0.02903253
0.03011688
0.03097066
0.03152359
0.03168964
0.03145669
0.0308776
0.0300292
0.02892474
0.02758037
0.02610466
0.02452581
0.02287026
0.02135786
0.01990212
0.01832809
0.0165321
0.01473156
0.01299281
0.01161192
0.0111894
0.01114413
0.01017327
0.008910294
0.008257377
0.00827967
0.008835919
0.009083338
0.00854032
0.009134027
0.008510384
0.008038821
0.00610453
0.004203403
0.002460699
0.001268467
0.0007381801
0.0004627468
-0.0001273531
-0.0007163836
-0.0006717219
-0.001096967
-0.001697547
-0.001850263
-0.001841256
-0.002085818
-0.002273326
-0.00171705
-0.0009326023
-0.0003827788
0.0001292197
0.0007526809
0.001357795
0.001633002
0.001117379
-0.0002196965
-0.001406698
-0.001906827
-0.002196676
-0.002321677
-0.002285285
-0.002161907
-0.0018435
-0.001402428
-0.001069279
-0.0009037153
-0.0007827583
-0.0006019253
-0.0003871976
-0.0002004517
-0.0001027089
-0.0001360931
-0.0002918531
-0.0005066938
-0.0006805862
-0.0007427926
-0.0006876238
-0.0005631586
-0.0004256697
-0.0003133081
-0.0002418866
-0.0002140221
-0.0002235826
-0.0002594197
-0.0003098029
-0.0003649732
-0.0004187205
-0.0004681033
-0.0005123413
-0.0005518849
-0.0005874393
-0.0006197012
-0.0006490555
-0.0006754447
-0.0006987438
-0.0007179576
-0.000732406
-0.0007421754
-0.0007480505
-0.0007509658
-0.0007512347
-0.0007491569
-0.0007451717
-0.0007395775
-0.0007325341
-0.0007239672
-0.0007138597
-0.0007022233
-0.0006891421
-0.0006747026
-0.0006591272
-0.0006427737
-0.0006261248
-0.000609765
-0.0005943741
-0.0005808058
-0.0005703517
-0.0005652587
-0.0005681153
0.003142834
0.004329954
0.00481236
0.004787317
0.005082991
0.005568401
0.005980425
0.006328177
0.006747039
0.007288624
0.007894735
0.00848411
0.00900958
0.009491934
0.0100074
0.01059611
0.01125098
0.01199635
0.01285551
0.01379701
0.01479481
0.01587581
0.01702269
0.01822355
0.01955162
0.02102087
0.02253098
0.02406097
0.02561165
0.02711963
0.0285897
0.02989599
0.03096209
0.03179329
0.03235331
0.03258732
0.03241053
0.0318551
0.03097741
0.02989015
0.02856792
0.02703554
0.02542718
0.02376322
0.02207635
0.02058751
0.01907846
0.01738068
0.01548336
0.01368519
0.01206694
0.01116079
0.01120954
0.01098636
0.009722863
0.008671863
0.008419604
0.008805246
0.008891778
0.008314549
0.009139831
0.008878341
0.008899847
0.00671564
0.004851948
0.00305492
0.001649788
0.0009868907
0.0007478548
0.0002994014
-0.0002972203
-0.0001817627
-0.0005958558
-0.001211823
-0.001486797
-0.001397804
-0.001783954
-0.002049616
-0.00145349
-0.0006923934
7.601409e-05
0.0005731458
0.001131212
0.001630056
0.001924548
0.001680554
0.0003537203
-0.001252718
-0.001941075
-0.002357741
-0.002951303
-0.003090399
-0.002911866
-0.002515245
-0.00193371
-0.001386541
-0.001049232
-0.0008506568
-0.0006473193
-0.0003881017
-0.0001320463
2.35828e-05
8.999653e-06
-0.0001914287
-0.0005078582
-0.000788529
-0.0008992133
-0.0008181938
-0.0006348155
-0.0004382985
-0.0002812521
-0.0001799025
-0.0001349959
-0.0001393724
-0.000178996
-0.0002382577
-0.0003040825
-0.0003679314
-0.000425652
-0.0004761476
-0.0005200435
-0.0005586439
-0.0005930489
-0.0006243403
-0.0006531231
-0.000679646
-0.0007036577
-0.00072388
-0.000739807
-0.0007504585
-0.000756508
-0.0007593812
-0.0007595575
-0.0007573809
-0.0007533912
-0.0007480328
-0.0007414619
-0.0007336277
-0.0007243
-0.0007134605
-0.0007011337
-0.0006874124
-0.0006725053
-0.000656779
-0.000640735
-0.0006249729
-0.0006102636
-0.0005977848
-0.0005896993
-0.0005885521
0.003361619
0.004591889
0.005124045
0.005159679
0.005500159
0.006010843
0.006446708
0.00682445
0.007273987
0.007841296
0.008468102
0.009075522
0.009623433
0.01012123
0.01063851
0.01123613
0.01190958
0.01265586
0.01350791
0.014462
0.01547794
0.01656359
0.01773867
0.01895812
0.0202527
0.02169971
0.02324525
0.02478953
0.02633472
0.02785527
0.02929116
0.0306391
0.03173434
0.0325522
0.03309806
0.03335117
0.03326287
0.03273289
0.03187914
0.03074853
0.02945979
0.02794566
0.02626336
0.02457681
0.02285302
0.02119825
0.01975377
0.01814071
0.01633153
0.01442088
0.01266342
0.0113256
0.01103656
0.01122118
0.01053588
0.009208973
0.008593966
0.008735494
0.00873426
0.008092791
0.008663105
0.009105182
0.009773149
0.007363371
0.005482736
0.003651604
0.002062304
0.001349614
0.001026583
0.0006845188
3.973277e-05
-0.0001866104
-0.0003500092
-0.0007684082
-0.001225865
-0.00106467
-0.001338827
-0.001665692
-0.001276493
-0.0002503267
0.0002530983
0.0008416133
0.00136156
0.001747339
0.001993751
0.001769848
0.0005080113
-0.0007627902
-0.001454766
-0.002147101
-0.003186291
-0.003813286
-0.003771565
-0.003327112
-0.002601266
-0.001860482
-0.001322205
-0.0009693373
-0.0006926162
-0.0004048738
-0.0001078326
0.0001065867
0.0001239174
-0.0001125963
-0.0005321869
-0.000945333
-0.001113861
-0.0009722926
-0.0007044587
-0.0004376786
-0.0002334156
-0.000102044
-3.866979e-05
-3.676084e-05
-8.0807e-05
-0.0001511525
-0.0002306592
-0.0003079029
-0.0003770196
-0.0004362402
-0.0004862358
-0.0005287847
-0.0005657346
-0.0005986646
-0.0006288625
-0.0006569328
-0.0006832089
-0.0007073688
-0.0007282575
-0.0007450138
-0.0007560019
-0.0007620114
-0.0007646722
-0.0007645168
-0.0007620533
-0.0007579349
-0.0007526953
-0.0007464918
-0.0007391527
-0.0007304657
-0.0007202735
-0.0007085469
-0.0006953889
-0.0006809902
-0.0006657059
-0.0006500124
-0.0006345444
-0.0006203202
-0.0006093716
-0.0006041194
0.003571625
0.004841384
0.005420462
0.005514027
0.005898817
0.006437232
0.00690014
0.007310514
0.007793224
0.008389155
0.009039844
0.009668636
0.01024131
0.01076271
0.01129057
0.01189594
0.01259097
0.01335253
0.01420126
0.01515733
0.01619014
0.01727957
0.01846017
0.01970869
0.02099042
0.02238436
0.02392459
0.02549415
0.02704069
0.02855299
0.0299721
0.03130406
0.03245336
0.03328376
0.03381613
0.03404758
0.03399721
0.03357649
0.032702
0.03157634
0.03024737
0.02878728
0.02710268
0.02531791
0.0236057
0.02184533
0.02028666
0.0188607
0.01712892
0.01525491
0.01337186
0.01168006
0.01084049
0.01110823
0.01103975
0.009868667
0.008837467
0.008634802
0.008635318
0.008049994
0.008200848
0.009620954
0.009975632
0.007979933
0.006082545
0.004299271
0.002510723
0.001690998
0.001290259
0.0009682703
0.0003167003
-0.0001553891
-0.00014494
-0.0004868209
-0.0008770418
-0.0009698385
-0.0009244188
-0.001066287
-0.0009588936
-0.0003393729
0.0004257071
0.000978414
0.001448835
0.001687342
0.001844099
0.001628358
0.0005824122
-0.0002579875
-0.0007300529
-0.001614143
-0.002975177
-0.004171987
-0.004552019
-0.004162419
-0.003375289
-0.002489003
-0.001709238
-0.001142791
-0.0007189092
-0.0003923077
-8.931332e-05
0.0001599009
0.0001988364
-7.026114e-05
-0.0005664886
-0.001137344
-0.001387874
-0.001126214
-0.0007519346
-0.0004136738
-0.0001671224
-9.619814e-06
7.41219e-05
8.509953e-05
3.685729e-05
-4.627197e-05
-0.0001419437
-0.0002356231
-0.0003194883
-0.0003904865
-0.0004490145
-0.000497207
-0.000537649
-0.0005726475
-0.000604051
-0.0006330767
-0.00066034
-0.0006862669
-0.0007104033
-0.0007314746
-0.0007484135
-0.000759355
-0.0007650942
-0.0007672951
-0.0007666265
-0.0007637639
-0.0007594893
-0.000754324
-0.0007483739
-0.0007414329
-0.0007332252
-0.0007234717
-0.0007121298
-0.0006992861
-0.0006851043
-0.0006698632
-0.0006540068
-0.000638344
-0.0006247122
-0.0006153124
0.003773556
0.005079868
0.005703194
0.005851568
0.006279449
0.006846995
0.007339033
0.007783653
0.008300948
0.008927026
0.009602933
0.01025425
0.01084827
0.01139339
0.01193518
0.01254509
0.01325276
0.01403319
0.01488208
0.01583123
0.01687169
0.0179683
0.01914022
0.02040758
0.0217043
0.02305692
0.02455318
0.02614134
0.02769371
0.02920552
0.0306382
0.031917
0.03309433
0.03397451
0.03450967
0.03472862
0.03464913
0.03428662
0.03351365
0.03237411
0.0309987
0.02952595
0.02791478
0.02607878
0.02424661
0.02254207
0.02081093
0.01933897
0.0178569
0.01612255
0.01419462
0.01227849
0.01076517
0.01053856
0.01115546
0.01070166
0.009236445
0.00856037
0.008564612
0.0082461
0.008200208
0.009986862
0.009336559
0.008539328
0.006624528
0.005137928
0.003084123
0.002028483
0.001575487
0.001231868
0.0006565153
0.0001740918
0.0003234769
-0.0001586134
-0.0007502395
-0.0008587637
-0.0004066866
-0.0006587537
-0.000886571
-0.0004486953
0.0003431064
0.0009693229
0.001349594
0.001557779
0.001632129
0.00146982
0.0007029635
0.0001561716
-7.222916e-05
-0.0008742053
-0.002318636
-0.00384402
-0.004767392
-0.0046734
-0.003975381
-0.003115657
-0.002224338
-0.00142901
-0.0007519063
-0.0003167592
-3.11849e-05
0.0002099215
0.0002318784
-8.051971e-05
-0.000624411
-0.001310901
-0.001687105
-0.001323914
-0.0007905196
-0.0003740977
-9.118192e-05
8.832081e-05
0.0001943463
0.0002174515
0.0001686552
7.459645e-05
-3.801893e-05
-0.0001503525
-0.0002516723
-0.0003374768
-0.0004072358
-0.0004631794
-0.0005085305
-0.0005464131
-0.0005793653
-0.0006092166
-0.0006371152
-0.0006636503
-0.000689168
-0.000713145
-0.0007340735
-0.0007506641
-0.0007611446
-0.0007662876
-0.0007677771
-0.0007664648
-0.000763189
-0.0007587571
-0.000753642
-0.0007478742
-0.0007412159
-0.0007332618
-0.0007236976
-0.0007124491
-0.0006995389
-0.0006850369
-0.0006691244
-0.0006523347
-0.0006362336
-0.0006226891
0.003967724
0.005308152
0.005973259
0.006173261
0.006642638
0.007239979
0.007762435
0.008242298
0.008795213
0.009452872
0.01015564
0.01083077
0.01144661
0.01201639
0.01257615
0.01319211
0.01390715
0.01470654
0.01556379
0.01650571
0.01754528
0.01865005
0.01981425
0.02107876
0.02240246
0.02373971
0.02517832
0.02675107
0.02832678
0.02983771
0.03126271
0.03253755
0.03367487
0.03461247
0.03517744
0.03539852
0.03528904
0.03492536
0.03425134
0.03311848
0.03175827
0.03020492
0.02862091
0.02685873
0.02491632
0.02313113
0.02141624
0.0198168
0.01842308
0.01677695
0.01503641
0.01306804
0.01114901
0.01020929
0.01076501
0.01102598
0.009884208
0.008642458
0.008506195
0.008240176
0.008016186
0.009880377
0.009340149
0.008736106
0.006792341
0.006208263
0.003677838
0.002372807
0.001828132
0.001558482
0.001069264
0.0004162165
0.0004191118
8.581326e-05
-0.0004406368
-0.0006979734
-0.0001893077
-0.0003714131
-0.0008512437
-0.0005622426
0.0003074824
0.0007118103
0.001196821
0.001471362
0.001562191
0.001437806
0.0009214198
0.0005637772
0.000519189
-9.137363e-05
-0.00148596
-0.003135484
-0.00446528
-0.004901355
-0.004415349
-0.003578323
-0.002674035
-0.001727952
-0.0008883467
-0.0002751613
7.485545e-05
0.0002901089
0.0002162232
-0.0002245112
-0.0008539466
-0.001662457
-0.002463881
-0.002080201
-0.0009055687
-0.0003374771
-1.644649e-05
0.0001805196
0.0003042899
0.0003454548
0.0003038535
0.0002052974
7.885302e-05
-5.236543e-05
-0.0001729932
-0.0002759291
-0.0003594953
-0.0004254424
-0.0004774326
-0.0005193705
-0.0005545814
-0.000585572
-0.0006140113
-0.0006409743
-0.0006669238
-0.000692056
-0.0007158388
-0.0007363507
-0.0007520646
-0.0007615967
-0.000765811
-0.0007664202
-0.0007644198
-0.0007607439
-0.0007561657
-0.0007510698
-0.0007454062
-0.0007388539
-0.0007309214
-0.000721242
-0.0007096456
-0.0006960364
-0.0006803397
-0.0006627319
-0.0006444081
-0.0006267793
0.00415413
0.005526563
0.006231152
0.00647968
0.006988782
0.007616067
0.008169635
0.008685265
0.009274502
0.009965001
0.01069633
0.01139698
0.01203609
0.01263072
0.01321161
0.01383649
0.0145573
0.01537156
0.01624337
0.0171814
0.01821463
0.01932421
0.02048581
0.02173391
0.02307491
0.024423
0.02581622
0.0273408
0.02892885
0.0304412
0.03187006
0.0331589
0.03423524
0.03519071
0.03581114
0.03604583
0.0359359
0.03551875
0.03488415
0.03388147
0.0324765
0.03089836
0.0292533
0.02756503
0.02563581
0.02369482
0.02200225
0.02024843
0.01878986
0.0174263
0.01573158
0.01383331
0.01179354
0.01028594
0.01039876
0.01105773
0.01029002
0.008919567
0.008448405
0.008023792
0.007548871
0.009025256
0.009250917
0.009543755
0.007329104
0.006845631
0.004177736
0.002747543
0.00220679
0.001864088
0.001373763
0.0005858545
0.0003053931
0.0002590741
-3.383188e-05
-0.0004086802
-7.202308e-06
-0.0002246687
-0.0005677993
-0.0004583968
-4.91095e-05
0.0004968386
0.0009740847
0.001337513
0.001483385
0.001458169
0.001163246
0.0009333679
0.0009908051
0.0005793194
-0.0007007499
-0.002420039
-0.003975966
-0.004871558
-0.004768636
-0.004013325
-0.003096215
-0.002070402
-0.001076906
-0.0003194538
0.000123118
0.0003173234
0.0001403831
-0.0004433706
-0.001226113
-0.002181995
-0.003453345
-0.003084041
-0.001039933
-0.0003334674
2.05687e-05
0.0002353417
0.0003846011
0.0004550373
0.0004341144
0.0003384748
0.0002022694
5.4082e-05
-8.626745e-05
-0.0002075454
-0.0003065424
-0.0003842402
-0.0004443603
-0.00049149
-0.0005297484
-0.0005623215
-0.0005915122
-0.0006187505
-0.0006449496
-0.0006704605
-0.0006952614
-0.000718641
-0.0007384757
-0.0007528049
-0.0007608796
-0.0007639145
-0.0007635502
-0.0007608467
-0.0007567843
-0.000752061
-0.0007469481
-0.0007412823
-0.0007346332
-0.0007264122
-0.0007161277
-0.0007034682
-0.0006881483
-0.0006699901
-0.0006497115
-0.0006281138
0.004332542
0.005735067
0.006476932
0.006770996
0.007317967
0.007974969
0.008559884
0.009111428
0.009737415
0.01046185
0.01122347
0.01195161
0.01261632
0.01323562
0.01384053
0.01447941
0.01520712
0.01603118
0.01692001
0.01786033
0.01888552
0.01999486
0.02115745
0.02238817
0.02372558
0.02509787
0.02646778
0.02793364
0.02950647
0.03103636
0.0324624
0.0337465
0.03481843
0.03572429
0.03640145
0.03667041
0.0365738
0.03612932
0.03547254
0.03455047
0.03317516
0.03161175
0.02987242
0.0281803
0.02636238
0.02429301
0.02246452
0.020804
0.0192051
0.01781813
0.0162325
0.01455316
0.01249725
0.01059136
0.009908731
0.01059755
0.0107809
0.009552021
0.008451732
0.00790754
0.007250828
0.008328992
0.01000182
0.0104394
0.008537263
0.006526157
0.004451883
0.002938387
0.002672037
0.002079023
0.001682999
0.0009849519
0.0005914142
0.0007404714
0.0003323743
-0.0001419793
-0.0001788259
-5.671613e-07
-0.0002880356
-0.0004937415
-0.0002609269
0.0003002053
0.0007289382
0.001193404
0.001415605
0.001397731
0.001320502
0.001228676
0.00136326
0.001119445
3.537808e-06
-0.001721966
-0.003458176
-0.00464077
-0.004956686
-0.00442192
-0.003484309
-0.002477971
-0.001325234
-0.0003762182
0.0001479596
0.0003261023
7.125224e-05
-0.0006217095
-0.001529407
-0.002473763
-0.00343484
-0.002828342
-0.001325783
-0.0006194893
-0.0001384042
0.0001748758
0.0003879792
0.0005104073
0.00053125
0.0004553368
0.0003183307
0.0001585214
1.311957e-06
-0.0001375752
-0.0002518911
-0.0003418444
-0.0004107627
-0.0004636878
-0.0005054735
-0.0005399958
-0.0005700467
-0.0005976161
-0.0006238238
-0.0006493148
-0.0006744618
-0.0006989451
-0.0007215842
-0.0007403263
-0.000752781
-0.0007590107
-0.0007607138
-0.0007593182
-0.000755928
-0.0007515174
-0.0007466593
-0.0007414761
-0.000735662
-0.0007286121
-0.0007195914
-0.0007079292
-0.0006930853
-0.0006745648
-0.0006525848
-0.0006271805
0.004502562
0.005933358
0.006710339
0.007047044
0.007629967
0.008316146
0.008932256
0.009519533
0.01018244
0.01094175
0.01173534
0.01249311
0.01318587
0.01383113
0.01446259
0.01512016
0.01585643
0.01668917
0.01759456
0.01854325
0.01956151
0.02066621
0.02183053
0.02304886
0.02436649
0.0257582
0.02712893
0.02854384
0.03007243
0.03161343
0.03303308
0.03432428
0.03541499
0.03624971
0.03694654
0.03726932
0.03719277
0.03675891
0.03602891
0.03513996
0.03390209
0.0322798
0.03051742
0.02872594
0.02697247
0.02495987
0.02294154
0.02127241
0.01953025
0.01810388
0.01678846
0.01509719
0.01315916
0.01109747
0.009871203
0.01026424
0.01072725
0.00986183
0.008612935
0.008149204
0.007709863
0.007973906
0.009855282
0.009800245
0.00955226
0.006930905
0.005270334
0.003558189
0.002726324
0.002273009
0.001844604
0.001108086
0.0008107953
0.001112343
0.0006819496
0.0001044309
-0.0001589468
3.765082e-05